
     Program PWSCF v.6.3 starts on 14Sep2021 at 18:37:52 

     This program is part of the open-source Quantum ESPRESSO suite
     for quantum simulation of materials; please cite
         "P. Giannozzi et al., J. Phys.:Condens. Matter 21 395502 (2009);
         "P. Giannozzi et al., J. Phys.:Condens. Matter 29 465901 (2017);
          URL http://www.quantum-espresso.org", 
     in publications or presentations arising from this work. More details at
     http://www.quantum-espresso.org/quote

     Parallel version (MPI), running on    24 processors

     MPI processes distributed on     1 nodes
     R & G space division:  proc/nbgrp/npool/nimage =      24
     Waiting for input...
     Reading input from standard input

     Current dimensions of program PWSCF are:
     Max number of different atomic species (ntypx) = 10
     Max number of k-points (npk) =  40000
     Max angular momentum in pseudopotentials (lmaxx) =  3
     Presently no symmetry can be used with electric field

     Message from routine read_upf::
     Pseudo file /home/jay/programs/pseudo/Ag.pbe-dn-kjpaw_psl.0.1.UPF has been successfully fixed on the fly.
To avoid this message in the future you can permanently fix 
 your pseudo files following instructions given in: 
https://gitlab.com/QEF/q-e/blob/master/upftools/how_to_fix_upf.md
               file Ag.pbe-dn-kjpaw_psl.0.1.UPF: wavefunction(s)  5S 5P 4D renormalized

     Subspace diagonalization in iterative solution of the eigenvalue problem:
     a serial algorithm will be used

     Found symmetry operation: I + ( -0.5000  0.2500  0.0000)
     This is a supercell, fractional translations are disabled
 
     Parallelization info
     --------------------
     sticks:   dense  smooth     PW     G-vecs:    dense   smooth      PW
     Min         176      69     20               102620    25903    3866
     Max         177      70     21               102647    25974    3894
     Sum        4231    1679    481              2463241   623019   93357
 


     bravais-lattice index     =            0
     lattice parameter (alat)  =       9.5914  a.u.
     unit-cell volume          =   13048.0475 (a.u.)^3
     number of atoms/cell      =           16
     number of atomic types    =            1
     number of electrons       =       176.03
     number of Kohn-Sham states=          106
     kinetic-energy cutoff     =      50.0000  Ry
     charge density cutoff     =     500.0000  Ry
     convergence threshold     =      1.0E-06
     mixing beta               =       0.7000
     number of iterations used =            8  local-TF  mixing
     Exchange-correlation      = SLA PW PBX PBC ( 1  4  3  4 0 0)

     celldm(1)=   9.591399  celldm(2)=   0.000000  celldm(3)=   0.000000
     celldm(4)=   0.000000  celldm(5)=   0.000000  celldm(6)=   0.000000

     crystal axes: (cart. coord. in units of alat)
               a(1) = (   1.000000   0.000000   0.000000 )  
               a(2) = (   0.000000   1.154700   0.000000 )  
               a(3) = (   0.000000   0.000000  12.806494 )  

     reciprocal axes: (cart. coord. in units 2 pi/alat)
               b(1) = (  1.000000  0.000000  0.000000 )  
               b(2) = (  0.000000  0.866025  0.000000 )  
               b(3) = (  0.000000  0.000000  0.078085 )  


     PseudoPot. # 1 for Ag read from file:
     /home/jay/programs/pseudo/Ag.pbe-dn-kjpaw_psl.0.1.UPF
     MD5 check sum: 82209186bd0980b993734dd1b6cd6311
     Pseudo is Projector augmented-wave + core cor, Zval = 11.0
     Generated using "atomic" code by A. Dal Corso v.5.0.2 svn rev. 9415
     Shape of augmentation charge: PSQ
     Using radial grid of 1237 points,  6 beta functions with: 
                l(1) =   0
                l(2) =   0
                l(3) =   1
                l(4) =   1
                l(5) =   2
                l(6) =   2
     Q(r) pseudized with 0 coefficients 


     atomic species   valence    mass     pseudopotential
        Ag            11.00     1.00000     Ag( 1.00)

     No symmetry found



   Cartesian axes

     site n.     atom                  positions (alat units)
         1           Ag  tau(   1) = (   0.3331107   0.0000000   0.0000000  )
         2           Ag  tau(   2) = (   0.8331117   0.2886761   0.0000000  )
         3           Ag  tau(   3) = (   0.3331198   0.0000005   1.4142605  )
         4           Ag  tau(   4) = (   0.8331210   0.2886756   1.4142602  )
         5           Ag  tau(   5) = (   0.4997783   0.2886761   0.4714051  )
         6           Ag  tau(   6) = (   0.9997774   0.0000000   0.4714051  )
         7           Ag  tau(   7) = (   0.1665029   0.2886758   0.9422474  )
         8           Ag  tau(   8) = (   0.6665019  -0.0000000   0.9422527  )
         9           Ag  tau(   9) = (   0.3331107   0.5773502   0.0000000  )
        10           Ag  tau(  10) = (   0.8331117   0.8660263   0.0000000  )
        11           Ag  tau(  11) = (   0.3331201   0.5773505   1.4142693  )
        12           Ag  tau(  12) = (   0.8331207   0.8660267   1.4142633  )
        13           Ag  tau(  13) = (   0.4997783   0.8660263   0.4714051  )
        14           Ag  tau(  14) = (   0.9997774   0.5773502   0.4714051  )
        15           Ag  tau(  15) = (   0.1665024   0.8660264   0.9422529  )
        16           Ag  tau(  16) = (   0.6665022   0.5773503   0.9422501  )

     number of k points=    34  gaussian smearing, width (Ry)=  0.0147
                       cart. coord. in units 2pi/alat
        k(    1) = (   0.0000000   0.0000000   0.0000000), wk =   0.0312500
        k(    2) = (   0.0000000   0.1082532   0.0000000), wk =   0.0625000
        k(    3) = (   0.0000000   0.2165064   0.0000000), wk =   0.0625000
        k(    4) = (   0.0000000   0.3247595   0.0000000), wk =   0.0625000
        k(    5) = (   0.0000000  -0.4330127   0.0000000), wk =   0.0312500
        k(    6) = (   0.1250000   0.0000000   0.0000000), wk =   0.0625000
        k(    7) = (   0.1250000   0.1082532   0.0000000), wk =   0.0625000
        k(    8) = (   0.1250000   0.2165064   0.0000000), wk =   0.0625000
        k(    9) = (   0.1250000   0.3247595   0.0000000), wk =   0.0625000
        k(   10) = (   0.1250000  -0.4330127   0.0000000), wk =   0.0625000
        k(   11) = (   0.1250000  -0.3247595   0.0000000), wk =   0.0625000
        k(   12) = (   0.1250000  -0.2165064   0.0000000), wk =   0.0625000
        k(   13) = (   0.1250000  -0.1082532   0.0000000), wk =   0.0625000
        k(   14) = (   0.2500000   0.0000000   0.0000000), wk =   0.0625000
        k(   15) = (   0.2500000   0.1082532   0.0000000), wk =   0.0625000
        k(   16) = (   0.2500000   0.2165064   0.0000000), wk =   0.0625000
        k(   17) = (   0.2500000   0.3247595   0.0000000), wk =   0.0625000
        k(   18) = (   0.2500000  -0.4330127   0.0000000), wk =   0.0625000
        k(   19) = (   0.2500000  -0.3247595   0.0000000), wk =   0.0625000
        k(   20) = (   0.2500000  -0.2165064   0.0000000), wk =   0.0625000
        k(   21) = (   0.2500000  -0.1082532   0.0000000), wk =   0.0625000
        k(   22) = (   0.3750000   0.0000000   0.0000000), wk =   0.0625000
        k(   23) = (   0.3750000   0.1082532   0.0000000), wk =   0.0625000
        k(   24) = (   0.3750000   0.2165064   0.0000000), wk =   0.0625000
        k(   25) = (   0.3750000   0.3247595   0.0000000), wk =   0.0625000
        k(   26) = (   0.3750000  -0.4330127   0.0000000), wk =   0.0625000
        k(   27) = (   0.3750000  -0.3247595   0.0000000), wk =   0.0625000
        k(   28) = (   0.3750000  -0.2165064   0.0000000), wk =   0.0625000
        k(   29) = (   0.3750000  -0.1082532   0.0000000), wk =   0.0625000
        k(   30) = (  -0.5000000   0.0000000   0.0000000), wk =   0.0312500
        k(   31) = (  -0.5000000   0.1082532   0.0000000), wk =   0.0625000
        k(   32) = (  -0.5000000   0.2165064   0.0000000), wk =   0.0625000
        k(   33) = (  -0.5000000   0.3247595   0.0000000), wk =   0.0625000
        k(   34) = (  -0.5000000  -0.4330127   0.0000000), wk =   0.0312500

     Dense  grid:  2463241 G-vectors     FFT dimensions: (  72,  80, 900)

     Smooth grid:   623019 G-vectors     FFT dimensions: (  45,  50, 576)

     Estimated max dynamical RAM per process >     621.99 MB

     Estimated total dynamical RAM >      14.58 GB

     Initial potential from superposition of free atoms
     Check: negative starting charge=   -0.001213

     starting charge  175.99362, renormalised to  176.02778

     negative rho (up, down):  1.213E-03 0.000E+00
                                   
   ## Hartree pot for val. elec. (v_hartree.cube) has been written. ## 
         
  DFT-CES: QM_ion*rho_ces =        0.000000 Ry
  DFT-CES: QM_ion*rho_ces_ion =        0.000000 Ry
  DFT-CES: QM_rho*rho_ces =        0.000000 Ry
  DFT-CES: QM_rho*rho_ces_ion =        0.000000 Ry
  DFT-CES: QM_rho*rho_ces_rep =        0.000000 Ry
  DFT-CES: MD pot added. E_ces=        0.000000 Ry
 
     Adding external electric field

     Computed dipole along edir(3) : 
     System dipole           0.8523 Ry au,          2.1663 Debye
        CES dipole           0.0000 Ry au,          0.0000 Debye
        Dipole                0.8523 Ry au,          2.1663 Debye
        Dipole field          0.0008 Ry au, 
 
        Potential amp.       -0.1996 Ry
        Total length        121.6039 bohr
 
                                   
   ## Saw potential for dipc (v_saw.cube) has been written.## 
                                   
   ## Hartree pot for val. elec. (v_hartree.cube) has been written. ## 
                                   
   ## Hartree pot for val. elec. (v_hartree.cube) has been written. ## 
                                   
  ## MD potential file has been written: v_md.cube                                                                       
                                   
  ## MD potential file has been written: v_md_ion.cube                                                                   
                                   
     DFT-CES: Initiation completed.
     Starting wfcs are  144 atomic wfcs
     Checking if some PAW data can be deallocated... 

     total cpu time spent up to now is       34.8 secs

     Self-consistent Calculation

     iteration #  1     ecut=    50.00 Ry     beta= 0.70
     CG style diagonalization
     ethr =  1.00E-02,  avg # of iterations =  2.3

     Threshold (ethr) on eigenvalues was too large:
     Diagonalizing with lowered threshold

     CG style diagonalization
     ethr =  1.48E-04,  avg # of iterations =  4.7

     negative rho (up, down):  5.660E-04 0.000E+00
                                   
   ## Hartree pot for val. elec. (v_hartree.cube) has been written. ## 
         
  DFT-CES: QM_ion*rho_ces =        0.000000 Ry
  DFT-CES: QM_ion*rho_ces_ion =        6.837188 Ry
  DFT-CES: QM_rho*rho_ces =        0.000000 Ry
  DFT-CES: QM_rho*rho_ces_ion =       -6.850501 Ry
  DFT-CES: QM_rho*rho_ces_rep =        0.000000 Ry
  DFT-CES: MD pot added. E_ces=       -0.013313 Ry
 
     Adding external electric field

     Computed dipole along edir(3) : 
     System dipole           0.8223 Ry au,          2.0902 Debye
        CES dipole          -0.4012 Ry au,         -1.0199 Debye
        Dipole                0.4211 Ry au,          1.0703 Debye
        Dipole field          0.0004 Ry au, 
 
        Potential amp.       -0.0986 Ry
        Total length        121.6039 bohr
 
                                   
   ## Saw potential for dipc (v_saw.cube) has been written.## 

     total cpu time spent up to now is      604.2 secs

     total energy              =   -5684.72114431 Ry
     Harris-Foulkes estimate   =   -5684.73724387 Ry
     estimated scf accuracy    <       0.22346438 Ry

     iteration #  2     ecut=    50.00 Ry     beta= 0.70
     CG style diagonalization
     ethr =  1.27E-04,  avg # of iterations =  3.2

     negative rho (up, down):  6.869E-04 0.000E+00
                                   
   ## Hartree pot for val. elec. (v_hartree.cube) has been written. ## 
         
  DFT-CES: QM_ion*rho_ces =        0.000000 Ry
  DFT-CES: QM_ion*rho_ces_ion =        6.837188 Ry
  DFT-CES: QM_rho*rho_ces =        0.000000 Ry
  DFT-CES: QM_rho*rho_ces_ion =       -6.856999 Ry
  DFT-CES: QM_rho*rho_ces_rep =        0.000000 Ry
  DFT-CES: MD pot added. E_ces=       -0.019811 Ry
 
     Adding external electric field

     Computed dipole along edir(3) : 
     System dipole           0.8447 Ry au,          2.1470 Debye
        CES dipole          -0.4012 Ry au,         -1.0199 Debye
        Dipole                0.4435 Ry au,          1.1272 Debye
        Dipole field          0.0004 Ry au, 
 
        Potential amp.       -0.1039 Ry
        Total length        121.6039 bohr
 
                                   
   ## Saw potential for dipc (v_saw.cube) has been written.## 

     total cpu time spent up to now is      798.7 secs

     total energy              =   -5684.74992946 Ry
     Harris-Foulkes estimate   =   -5684.74342990 Ry
     estimated scf accuracy    <       0.34018793 Ry

     iteration #  3     ecut=    50.00 Ry     beta= 0.70
     CG style diagonalization
     ethr =  1.27E-04,  avg # of iterations =  3.0

     negative rho (up, down):  7.996E-04 0.000E+00
                                   
   ## Hartree pot for val. elec. (v_hartree.cube) has been written. ## 
         
  DFT-CES: QM_ion*rho_ces =        0.000000 Ry
  DFT-CES: QM_ion*rho_ces_ion =        6.837188 Ry
  DFT-CES: QM_rho*rho_ces =        0.000000 Ry
  DFT-CES: QM_rho*rho_ces_ion =       -6.859174 Ry
  DFT-CES: QM_rho*rho_ces_rep =        0.000000 Ry
  DFT-CES: MD pot added. E_ces=       -0.021986 Ry
 
     Adding external electric field

     Computed dipole along edir(3) : 
     System dipole           0.5701 Ry au,          1.4491 Debye
        CES dipole          -0.4012 Ry au,         -1.0199 Debye
        Dipole                0.1689 Ry au,          0.4292 Debye
        Dipole field          0.0002 Ry au, 
 
        Potential amp.       -0.0396 Ry
        Total length        121.6039 bohr
 
                                   
   ## Saw potential for dipc (v_saw.cube) has been written.## 

     total cpu time spent up to now is      978.7 secs

     total energy              =   -5684.69647174 Ry
     Harris-Foulkes estimate   =   -5684.75595993 Ry
     estimated scf accuracy    <       0.44523799 Ry

     iteration #  4     ecut=    50.00 Ry     beta= 0.70
     CG style diagonalization
     ethr =  1.27E-04,  avg # of iterations =  3.1

     negative rho (up, down):  4.234E-04 0.000E+00
                                   
   ## Hartree pot for val. elec. (v_hartree.cube) has been written. ## 
         
  DFT-CES: QM_ion*rho_ces =        0.000000 Ry
  DFT-CES: QM_ion*rho_ces_ion =        6.837188 Ry
  DFT-CES: QM_rho*rho_ces =        0.000000 Ry
  DFT-CES: QM_rho*rho_ces_ion =       -6.838935 Ry
  DFT-CES: QM_rho*rho_ces_rep =        0.000000 Ry
  DFT-CES: MD pot added. E_ces=       -0.001747 Ry
 
     Adding external electric field

     Computed dipole along edir(3) : 
     System dipole           0.5519 Ry au,          1.4028 Debye
        CES dipole          -0.4012 Ry au,         -1.0199 Debye
        Dipole                0.1506 Ry au,          0.3829 Debye
        Dipole field          0.0001 Ry au, 
 
        Potential amp.       -0.0353 Ry
        Total length        121.6039 bohr
 
                                   
   ## Saw potential for dipc (v_saw.cube) has been written.## 

     total cpu time spent up to now is     1161.0 secs

     total energy              =   -5684.70782309 Ry
     Harris-Foulkes estimate   =   -5684.71045421 Ry
     estimated scf accuracy    <       0.03384199 Ry

     iteration #  5     ecut=    50.00 Ry     beta= 0.70
     CG style diagonalization
     c_bands:  1 eigenvalues not converged
     c_bands:  1 eigenvalues not converged
     c_bands:  1 eigenvalues not converged
     c_bands:  1 eigenvalues not converged
     c_bands:  1 eigenvalues not converged
     c_bands:  2 eigenvalues not converged
     c_bands:  2 eigenvalues not converged
     ethr =  1.92E-05,  avg # of iterations =  4.4

     negative rho (up, down):  2.252E-04 0.000E+00
                                   
   ## Hartree pot for val. elec. (v_hartree.cube) has been written. ## 
         
  DFT-CES: QM_ion*rho_ces =        0.000000 Ry
  DFT-CES: QM_ion*rho_ces_ion =        6.837188 Ry
  DFT-CES: QM_rho*rho_ces =        0.000000 Ry
  DFT-CES: QM_rho*rho_ces_ion =       -6.841408 Ry
  DFT-CES: QM_rho*rho_ces_rep =        0.000000 Ry
  DFT-CES: MD pot added. E_ces=       -0.004220 Ry
 
     Adding external electric field

     Computed dipole along edir(3) : 
     System dipole           0.5114 Ry au,          1.2999 Debye
        CES dipole          -0.4012 Ry au,         -1.0199 Debye
        Dipole                0.1102 Ry au,          0.2801 Debye
        Dipole field          0.0001 Ry au, 
 
        Potential amp.       -0.0258 Ry
        Total length        121.6039 bohr
 
                                   
   ## Saw potential for dipc (v_saw.cube) has been written.## 

     total cpu time spent up to now is     1452.7 secs

     total energy              =   -5684.71491152 Ry
     Harris-Foulkes estimate   =   -5684.71858110 Ry
     estimated scf accuracy    <       0.01361149 Ry

     iteration #  6     ecut=    50.00 Ry     beta= 0.70
     CG style diagonalization
     c_bands:  2 eigenvalues not converged
     c_bands:  2 eigenvalues not converged
     ethr =  7.73E-06,  avg # of iterations =  3.4

     negative rho (up, down):  7.334E-05 0.000E+00
                                   
   ## Hartree pot for val. elec. (v_hartree.cube) has been written. ## 
         
  DFT-CES: QM_ion*rho_ces =        0.000000 Ry
  DFT-CES: QM_ion*rho_ces_ion =        6.837188 Ry
  DFT-CES: QM_rho*rho_ces =        0.000000 Ry
  DFT-CES: QM_rho*rho_ces_ion =       -6.844081 Ry
  DFT-CES: QM_rho*rho_ces_rep =        0.000000 Ry
  DFT-CES: MD pot added. E_ces=       -0.006893 Ry
 
     Adding external electric field

     Computed dipole along edir(3) : 
     System dipole           0.2895 Ry au,          0.7358 Debye
        CES dipole          -0.4012 Ry au,         -1.0199 Debye
        Dipole               -0.1118 Ry au,         -0.2840 Debye
        Dipole field         -0.0001 Ry au, 
 
        Potential amp.        0.0262 Ry
        Total length        121.6039 bohr
 
                                   
   ## Saw potential for dipc (v_saw.cube) has been written.## 

     total cpu time spent up to now is     1669.1 secs

     total energy              =   -5684.71868739 Ry
     Harris-Foulkes estimate   =   -5684.71966420 Ry
     estimated scf accuracy    <       0.00616882 Ry

     iteration #  7     ecut=    50.00 Ry     beta= 0.70
     CG style diagonalization
     c_bands:  1 eigenvalues not converged
     c_bands:  1 eigenvalues not converged
     c_bands:  1 eigenvalues not converged
     c_bands:  1 eigenvalues not converged
     c_bands:  1 eigenvalues not converged
     c_bands:  1 eigenvalues not converged
     c_bands:  1 eigenvalues not converged
     ethr =  3.50E-06,  avg # of iterations =  4.1

     negative rho (up, down):  2.594E-05 0.000E+00
                                   
   ## Hartree pot for val. elec. (v_hartree.cube) has been written. ## 
         
  DFT-CES: QM_ion*rho_ces =        0.000000 Ry
  DFT-CES: QM_ion*rho_ces_ion =        6.837188 Ry
  DFT-CES: QM_rho*rho_ces =        0.000000 Ry
  DFT-CES: QM_rho*rho_ces_ion =       -6.841010 Ry
  DFT-CES: QM_rho*rho_ces_rep =        0.000000 Ry
  DFT-CES: MD pot added. E_ces=       -0.003822 Ry
 
     Adding external electric field

     Computed dipole along edir(3) : 
     System dipole           0.1699 Ry au,          0.4318 Debye
        CES dipole          -0.4012 Ry au,         -1.0199 Debye
        Dipole               -0.2314 Ry au,         -0.5881 Debye
        Dipole field         -0.0002 Ry au, 
 
        Potential amp.        0.0542 Ry
        Total length        121.6039 bohr
 
                                   
   ## Saw potential for dipc (v_saw.cube) has been written.## 

     total cpu time spent up to now is     1938.0 secs

     total energy              =   -5684.71636582 Ry
     Harris-Foulkes estimate   =   -5684.71725728 Ry
     estimated scf accuracy    <       0.01319841 Ry

     iteration #  8     ecut=    50.00 Ry     beta= 0.70
     CG style diagonalization
     c_bands:  1 eigenvalues not converged
     c_bands:  1 eigenvalues not converged
     ethr =  3.50E-06,  avg # of iterations =  3.2

     negative rho (up, down):  1.222E-03 0.000E+00
                                   
   ## Hartree pot for val. elec. (v_hartree.cube) has been written. ## 
         
  DFT-CES: QM_ion*rho_ces =        0.000000 Ry
  DFT-CES: QM_ion*rho_ces_ion =        6.837188 Ry
  DFT-CES: QM_rho*rho_ces =        0.000000 Ry
  DFT-CES: QM_rho*rho_ces_ion =       -6.841069 Ry
  DFT-CES: QM_rho*rho_ces_rep =        0.000000 Ry
  DFT-CES: MD pot added. E_ces=       -0.003881 Ry
 
     Adding external electric field

     Computed dipole along edir(3) : 
     System dipole           0.0140 Ry au,          0.0356 Debye
        CES dipole          -0.4012 Ry au,         -1.0199 Debye
        Dipole               -0.3873 Ry au,         -0.9843 Debye
        Dipole field         -0.0004 Ry au, 
 
        Potential amp.        0.0907 Ry
        Total length        121.6039 bohr
 
                                   
   ## Saw potential for dipc (v_saw.cube) has been written.## 

     total cpu time spent up to now is     2129.5 secs

     total energy              =   -5684.71668698 Ry
     Harris-Foulkes estimate   =   -5684.71665229 Ry
     estimated scf accuracy    <       0.01004869 Ry

     iteration #  9     ecut=    50.00 Ry     beta= 0.70
     CG style diagonalization
     c_bands:  1 eigenvalues not converged
     c_bands:  1 eigenvalues not converged
     c_bands:  1 eigenvalues not converged
     c_bands:  1 eigenvalues not converged
     c_bands:  1 eigenvalues not converged
     c_bands:  1 eigenvalues not converged
     c_bands:  1 eigenvalues not converged
     c_bands:  1 eigenvalues not converged
     c_bands:  1 eigenvalues not converged
     c_bands:  1 eigenvalues not converged
     c_bands:  2 eigenvalues not converged
     ethr =  3.50E-06,  avg # of iterations =  3.2

     negative rho (up, down):  5.213E-04 0.000E+00
                                   
   ## Hartree pot for val. elec. (v_hartree.cube) has been written. ## 
         
  DFT-CES: QM_ion*rho_ces =        0.000000 Ry
  DFT-CES: QM_ion*rho_ces_ion =        6.837188 Ry
  DFT-CES: QM_rho*rho_ces =        0.000000 Ry
  DFT-CES: QM_rho*rho_ces_ion =       -6.841821 Ry
  DFT-CES: QM_rho*rho_ces_rep =        0.000000 Ry
  DFT-CES: MD pot added. E_ces=       -0.004633 Ry
 
     Adding external electric field

     Computed dipole along edir(3) : 
     System dipole          -0.0303 Ry au,         -0.0771 Debye
        CES dipole          -0.4012 Ry au,         -1.0199 Debye
        Dipole               -0.4316 Ry au,         -1.0970 Debye
        Dipole field         -0.0004 Ry au, 
 
        Potential amp.        0.1011 Ry
        Total length        121.6039 bohr
 
                                   
   ## Saw potential for dipc (v_saw.cube) has been written.## 

     total cpu time spent up to now is     2323.0 secs

     total energy              =   -5684.71759424 Ry
     Harris-Foulkes estimate   =   -5684.71752817 Ry
     estimated scf accuracy    <       0.00621884 Ry

     iteration # 10     ecut=    50.00 Ry     beta= 0.70
     CG style diagonalization
     ethr =  3.50E-06,  avg # of iterations =  3.0

     negative rho (up, down):  7.660E-04 0.000E+00
                                   
   ## Hartree pot for val. elec. (v_hartree.cube) has been written. ## 
         
  DFT-CES: QM_ion*rho_ces =        0.000000 Ry
  DFT-CES: QM_ion*rho_ces_ion =        6.837188 Ry
  DFT-CES: QM_rho*rho_ces =        0.000000 Ry
  DFT-CES: QM_rho*rho_ces_ion =       -6.841727 Ry
  DFT-CES: QM_rho*rho_ces_rep =        0.000000 Ry
  DFT-CES: MD pot added. E_ces=       -0.004539 Ry
 
     Adding external electric field

     Computed dipole along edir(3) : 
     System dipole          -0.0575 Ry au,         -0.1460 Debye
        CES dipole          -0.4012 Ry au,         -1.0199 Debye
        Dipole               -0.4587 Ry au,         -1.1659 Debye
        Dipole field         -0.0004 Ry au, 
 
        Potential amp.        0.1074 Ry
        Total length        121.6039 bohr
 
                                   
   ## Saw potential for dipc (v_saw.cube) has been written.## 

     total cpu time spent up to now is     2504.2 secs

     total energy              =   -5684.71753410 Ry
     Harris-Foulkes estimate   =   -5684.71754149 Ry
     estimated scf accuracy    <       0.00637231 Ry

     iteration # 11     ecut=    50.00 Ry     beta= 0.70
     CG style diagonalization
     ethr =  3.50E-06,  avg # of iterations =  3.0

     negative rho (up, down):  1.099E-03 0.000E+00
                                   
   ## Hartree pot for val. elec. (v_hartree.cube) has been written. ## 
         
  DFT-CES: QM_ion*rho_ces =        0.000000 Ry
  DFT-CES: QM_ion*rho_ces_ion =        6.837188 Ry
  DFT-CES: QM_rho*rho_ces =        0.000000 Ry
  DFT-CES: QM_rho*rho_ces_ion =       -6.843027 Ry
  DFT-CES: QM_rho*rho_ces_rep =        0.000000 Ry
  DFT-CES: MD pot added. E_ces=       -0.005839 Ry
 
     Adding external electric field

     Computed dipole along edir(3) : 
     System dipole          -0.0736 Ry au,         -0.1871 Debye
        CES dipole          -0.4012 Ry au,         -1.0199 Debye
        Dipole               -0.4748 Ry au,         -1.2069 Debye
        Dipole field         -0.0005 Ry au, 
 
        Potential amp.        0.1112 Ry
        Total length        121.6039 bohr
 
                                   
   ## Saw potential for dipc (v_saw.cube) has been written.## 

     total cpu time spent up to now is     2682.1 secs

     total energy              =   -5684.71850311 Ry
     Harris-Foulkes estimate   =   -5684.71894293 Ry
     estimated scf accuracy    <       0.00352493 Ry

     iteration # 12     ecut=    50.00 Ry     beta= 0.70
     CG style diagonalization
     c_bands:  1 eigenvalues not converged
     c_bands:  1 eigenvalues not converged
     c_bands:  1 eigenvalues not converged
     c_bands:  1 eigenvalues not converged
     ethr =  2.00E-06,  avg # of iterations =  3.1

     negative rho (up, down):  5.726E-04 0.000E+00
                                   
   ## Hartree pot for val. elec. (v_hartree.cube) has been written. ## 
         
  DFT-CES: QM_ion*rho_ces =        0.000000 Ry
  DFT-CES: QM_ion*rho_ces_ion =        6.837188 Ry
  DFT-CES: QM_rho*rho_ces =        0.000000 Ry
  DFT-CES: QM_rho*rho_ces_ion =       -6.843152 Ry
  DFT-CES: QM_rho*rho_ces_rep =        0.000000 Ry
  DFT-CES: MD pot added. E_ces=       -0.005964 Ry
 
     Adding external electric field

     Computed dipole along edir(3) : 
     System dipole          -0.0305 Ry au,         -0.0775 Debye
        CES dipole          -0.4012 Ry au,         -1.0199 Debye
        Dipole               -0.4317 Ry au,         -1.0973 Debye
        Dipole field         -0.0004 Ry au, 
 
        Potential amp.        0.1011 Ry
        Total length        121.6039 bohr
 
                                   
   ## Saw potential for dipc (v_saw.cube) has been written.## 

     total cpu time spent up to now is     2870.6 secs

     total energy              =   -5684.71837961 Ry
     Harris-Foulkes estimate   =   -5684.71876167 Ry
     estimated scf accuracy    <       0.00219530 Ry

     iteration # 13     ecut=    50.00 Ry     beta= 0.70
     CG style diagonalization
     c_bands:  1 eigenvalues not converged
     c_bands:  1 eigenvalues not converged
     c_bands:  1 eigenvalues not converged
     ethr =  1.25E-06,  avg # of iterations =  3.1

     negative rho (up, down):  8.302E-04 0.000E+00
                                   
   ## Hartree pot for val. elec. (v_hartree.cube) has been written. ## 
         
  DFT-CES: QM_ion*rho_ces =        0.000000 Ry
  DFT-CES: QM_ion*rho_ces_ion =        6.837188 Ry
  DFT-CES: QM_rho*rho_ces =        0.000000 Ry
  DFT-CES: QM_rho*rho_ces_ion =       -6.843522 Ry
  DFT-CES: QM_rho*rho_ces_rep =        0.000000 Ry
  DFT-CES: MD pot added. E_ces=       -0.006334 Ry
 
     Adding external electric field

     Computed dipole along edir(3) : 
     System dipole           0.1370 Ry au,          0.3482 Debye
        CES dipole          -0.4012 Ry au,         -1.0199 Debye
        Dipole               -0.2643 Ry au,         -0.6717 Debye
        Dipole field         -0.0003 Ry au, 
 
        Potential amp.        0.0619 Ry
        Total length        121.6039 bohr
 
                                   
   ## Saw potential for dipc (v_saw.cube) has been written.## 

     total cpu time spent up to now is     3060.7 secs

     total energy              =   -5684.71836447 Ry
     Harris-Foulkes estimate   =   -5684.71892582 Ry
     estimated scf accuracy    <       0.00162735 Ry

     iteration # 14     ecut=    50.00 Ry     beta= 0.70
     CG style diagonalization
     c_bands:  1 eigenvalues not converged
     c_bands:  1 eigenvalues not converged
     c_bands:  1 eigenvalues not converged
     c_bands:  1 eigenvalues not converged
     ethr =  9.24E-07,  avg # of iterations =  3.2

     negative rho (up, down):  7.078E-03 0.000E+00
                                   
   ## Hartree pot for val. elec. (v_hartree.cube) has been written. ## 
         
  DFT-CES: QM_ion*rho_ces =        0.000000 Ry
  DFT-CES: QM_ion*rho_ces_ion =        6.837188 Ry
  DFT-CES: QM_rho*rho_ces =        0.000000 Ry
  DFT-CES: QM_rho*rho_ces_ion =       -6.843149 Ry
  DFT-CES: QM_rho*rho_ces_rep =        0.000000 Ry
  DFT-CES: MD pot added. E_ces=       -0.005961 Ry
 
     Adding external electric field

     Computed dipole along edir(3) : 
     System dipole           0.3068 Ry au,          0.7797 Debye
        CES dipole          -0.4012 Ry au,         -1.0199 Debye
        Dipole               -0.0945 Ry au,         -0.2401 Debye
        Dipole field         -0.0001 Ry au, 
 
        Potential amp.        0.0221 Ry
        Total length        121.6039 bohr
 
                                   
   ## Saw potential for dipc (v_saw.cube) has been written.## 

     total cpu time spent up to now is     3252.9 secs

     total energy              =   -5684.71749585 Ry
     Harris-Foulkes estimate   =   -5684.71813854 Ry
     estimated scf accuracy    <       0.00096967 Ry

     iteration # 15     ecut=    50.00 Ry     beta= 0.70
     CG style diagonalization
     c_bands:  1 eigenvalues not converged
     c_bands:  1 eigenvalues not converged
     c_bands:  1 eigenvalues not converged
     c_bands:  1 eigenvalues not converged
     c_bands:  1 eigenvalues not converged
     c_bands:  1 eigenvalues not converged
     c_bands:  2 eigenvalues not converged
     c_bands:  1 eigenvalues not converged
     c_bands:  1 eigenvalues not converged
     c_bands:  2 eigenvalues not converged
     c_bands:  2 eigenvalues not converged
     ethr =  5.51E-07,  avg # of iterations =  3.4

     negative rho (up, down):  7.244E-03 0.000E+00
                                   
   ## Hartree pot for val. elec. (v_hartree.cube) has been written. ## 
         
  DFT-CES: QM_ion*rho_ces =        0.000000 Ry
  DFT-CES: QM_ion*rho_ces_ion =        6.837188 Ry
  DFT-CES: QM_rho*rho_ces =        0.000000 Ry
  DFT-CES: QM_rho*rho_ces_ion =       -6.842297 Ry
  DFT-CES: QM_rho*rho_ces_rep =        0.000000 Ry
  DFT-CES: MD pot added. E_ces=       -0.005108 Ry
 
     Adding external electric field

     Computed dipole along edir(3) : 
     System dipole           0.3693 Ry au,          0.9387 Debye
        CES dipole          -0.4012 Ry au,         -1.0199 Debye
        Dipole               -0.0319 Ry au,         -0.0812 Debye
        Dipole field         -0.0000 Ry au, 
 
        Potential amp.        0.0075 Ry
        Total length        121.6039 bohr
 
                                   
   ## Saw potential for dipc (v_saw.cube) has been written.## 

     total cpu time spent up to now is     3466.2 secs

     total energy              =   -5684.71638961 Ry
     Harris-Foulkes estimate   =   -5684.71677295 Ry
     estimated scf accuracy    <       0.00215064 Ry

     iteration # 16     ecut=    50.00 Ry     beta= 0.70
     CG style diagonalization
     c_bands:  1 eigenvalues not converged
     c_bands:  1 eigenvalues not converged
     c_bands:  1 eigenvalues not converged
     c_bands:  1 eigenvalues not converged
     c_bands:  1 eigenvalues not converged
     c_bands:  1 eigenvalues not converged
     c_bands:  1 eigenvalues not converged
     c_bands:  1 eigenvalues not converged
     c_bands:  1 eigenvalues not converged
     c_bands:  2 eigenvalues not converged
     c_bands:  1 eigenvalues not converged
     c_bands:  1 eigenvalues not converged
     c_bands:  1 eigenvalues not converged
     c_bands:  1 eigenvalues not converged
     c_bands:  1 eigenvalues not converged
     c_bands:  1 eigenvalues not converged
     ethr =  5.51E-07,  avg # of iterations =  3.3

     negative rho (up, down):  1.136E-02 0.000E+00
                                   
   ## Hartree pot for val. elec. (v_hartree.cube) has been written. ## 
         
  DFT-CES: QM_ion*rho_ces =        0.000000 Ry
  DFT-CES: QM_ion*rho_ces_ion =        6.837188 Ry
  DFT-CES: QM_rho*rho_ces =        0.000000 Ry
  DFT-CES: QM_rho*rho_ces_ion =       -6.842746 Ry
  DFT-CES: QM_rho*rho_ces_rep =        0.000000 Ry
  DFT-CES: MD pot added. E_ces=       -0.005558 Ry
 
     Adding external electric field

     Computed dipole along edir(3) : 
     System dipole           0.4114 Ry au,          1.0457 Debye
        CES dipole          -0.4012 Ry au,         -1.0199 Debye
        Dipole                0.0102 Ry au,          0.0259 Debye
        Dipole field          0.0000 Ry au, 
 
        Potential amp.       -0.0024 Ry
        Total length        121.6039 bohr
 
                                   
   ## Saw potential for dipc (v_saw.cube) has been written.## 

     total cpu time spent up to now is     3665.0 secs

     total energy              =   -5684.71669191 Ry
     Harris-Foulkes estimate   =   -5684.71687987 Ry
     estimated scf accuracy    <       0.00092743 Ry

     iteration # 17     ecut=    50.00 Ry     beta= 0.70
     CG style diagonalization
     c_bands:  1 eigenvalues not converged
     c_bands:  1 eigenvalues not converged
     c_bands:  1 eigenvalues not converged
     c_bands:  2 eigenvalues not converged
     c_bands:  2 eigenvalues not converged
     c_bands:  1 eigenvalues not converged
     c_bands:  1 eigenvalues not converged
     c_bands:  1 eigenvalues not converged
     c_bands:  1 eigenvalues not converged
     c_bands:  2 eigenvalues not converged
     c_bands:  1 eigenvalues not converged
     c_bands:  1 eigenvalues not converged
     c_bands:  1 eigenvalues not converged
     c_bands:  1 eigenvalues not converged
     c_bands:  2 eigenvalues not converged
     c_bands:  1 eigenvalues not converged
     c_bands:  2 eigenvalues not converged
     c_bands:  1 eigenvalues not converged
     c_bands:  1 eigenvalues not converged
     c_bands:  1 eigenvalues not converged
     c_bands:  2 eigenvalues not converged
     c_bands:  1 eigenvalues not converged
     c_bands:  2 eigenvalues not converged
     c_bands:  2 eigenvalues not converged
     c_bands:  2 eigenvalues not converged
     c_bands:  1 eigenvalues not converged
     c_bands:  2 eigenvalues not converged
     c_bands:  2 eigenvalues not converged
     c_bands:  3 eigenvalues not converged
     ethr =  5.27E-07,  avg # of iterations =  3.3

     negative rho (up, down):  1.249E-02 0.000E+00
                                   
   ## Hartree pot for val. elec. (v_hartree.cube) has been written. ## 
         
  DFT-CES: QM_ion*rho_ces =        0.000000 Ry
  DFT-CES: QM_ion*rho_ces_ion =        6.837188 Ry
  DFT-CES: QM_rho*rho_ces =        0.000000 Ry
  DFT-CES: QM_rho*rho_ces_ion =       -6.843019 Ry
  DFT-CES: QM_rho*rho_ces_rep =        0.000000 Ry
  DFT-CES: MD pot added. E_ces=       -0.005831 Ry
 
     Adding external electric field

     Computed dipole along edir(3) : 
     System dipole           0.4665 Ry au,          1.1858 Debye
        CES dipole          -0.4012 Ry au,         -1.0199 Debye
        Dipole                0.0653 Ry au,          0.1659 Debye
        Dipole field          0.0001 Ry au, 
 
        Potential amp.       -0.0153 Ry
        Total length        121.6039 bohr
 
                                   
   ## Saw potential for dipc (v_saw.cube) has been written.## 

     total cpu time spent up to now is     3870.8 secs

     total energy              =   -5684.71676566 Ry
     Harris-Foulkes estimate   =   -5684.71698292 Ry
     estimated scf accuracy    <       0.00044321 Ry

     iteration # 18     ecut=    50.00 Ry     beta= 0.70
     CG style diagonalization
     c_bands:  2 eigenvalues not converged
     c_bands:  1 eigenvalues not converged
     c_bands:  1 eigenvalues not converged
     c_bands:  1 eigenvalues not converged
     c_bands:  1 eigenvalues not converged
     c_bands:  1 eigenvalues not converged
     c_bands:  1 eigenvalues not converged
     c_bands:  1 eigenvalues not converged
     c_bands:  1 eigenvalues not converged
     c_bands:  1 eigenvalues not converged
     c_bands:  1 eigenvalues not converged
     c_bands:  1 eigenvalues not converged
     c_bands:  1 eigenvalues not converged
     c_bands:  1 eigenvalues not converged
     c_bands:  1 eigenvalues not converged
     c_bands:  2 eigenvalues not converged
     c_bands:  1 eigenvalues not converged
     c_bands:  1 eigenvalues not converged
     c_bands:  1 eigenvalues not converged
     c_bands:  1 eigenvalues not converged
     ethr =  2.52E-07,  avg # of iterations =  3.3

     negative rho (up, down):  7.907E-03 0.000E+00
                                   
   ## Hartree pot for val. elec. (v_hartree.cube) has been written. ## 
         
  DFT-CES: QM_ion*rho_ces =        0.000000 Ry
  DFT-CES: QM_ion*rho_ces_ion =        6.837188 Ry
  DFT-CES: QM_rho*rho_ces =        0.000000 Ry
  DFT-CES: QM_rho*rho_ces_ion =       -6.842967 Ry
  DFT-CES: QM_rho*rho_ces_rep =        0.000000 Ry
  DFT-CES: MD pot added. E_ces=       -0.005779 Ry
 
     Adding external electric field

     Computed dipole along edir(3) : 
     System dipole           0.5110 Ry au,          1.2989 Debye
        CES dipole          -0.4012 Ry au,         -1.0199 Debye
        Dipole                0.1098 Ry au,          0.2790 Debye
        Dipole field          0.0001 Ry au, 
 
        Potential amp.       -0.0257 Ry
        Total length        121.6039 bohr
 
                                   
   ## Saw potential for dipc (v_saw.cube) has been written.## 

     total cpu time spent up to now is     4071.3 secs

     total energy              =   -5684.71653625 Ry
     Harris-Foulkes estimate   =   -5684.71672420 Ry
     estimated scf accuracy    <       0.00036038 Ry

     iteration # 19     ecut=    50.00 Ry     beta= 0.70
     CG style diagonalization
     c_bands:  1 eigenvalues not converged
     c_bands:  1 eigenvalues not converged
     c_bands:  1 eigenvalues not converged
     c_bands:  2 eigenvalues not converged
     c_bands:  1 eigenvalues not converged
     c_bands:  1 eigenvalues not converged
     c_bands:  1 eigenvalues not converged
     c_bands:  1 eigenvalues not converged
     c_bands:  1 eigenvalues not converged
     c_bands:  1 eigenvalues not converged
     c_bands:  1 eigenvalues not converged
     c_bands:  1 eigenvalues not converged
     c_bands:  1 eigenvalues not converged
     c_bands:  1 eigenvalues not converged
     c_bands:  1 eigenvalues not converged
     c_bands:  2 eigenvalues not converged
     c_bands:  2 eigenvalues not converged
     c_bands:  2 eigenvalues not converged
     c_bands:  2 eigenvalues not converged
     c_bands:  1 eigenvalues not converged
     c_bands:  1 eigenvalues not converged
     c_bands:  2 eigenvalues not converged
     ethr =  2.05E-07,  avg # of iterations =  3.3

     negative rho (up, down):  4.920E-03 0.000E+00
                                   
   ## Hartree pot for val. elec. (v_hartree.cube) has been written. ## 
         
  DFT-CES: QM_ion*rho_ces =        0.000000 Ry
  DFT-CES: QM_ion*rho_ces_ion =        6.837188 Ry
  DFT-CES: QM_rho*rho_ces =        0.000000 Ry
  DFT-CES: QM_rho*rho_ces_ion =       -6.843205 Ry
  DFT-CES: QM_rho*rho_ces_rep =        0.000000 Ry
  DFT-CES: MD pot added. E_ces=       -0.006017 Ry
 
     Adding external electric field

     Computed dipole along edir(3) : 
     System dipole           0.5638 Ry au,          1.4330 Debye
        CES dipole          -0.4012 Ry au,         -1.0199 Debye
        Dipole                0.1625 Ry au,          0.4131 Debye
        Dipole field          0.0002 Ry au, 
 
        Potential amp.       -0.0381 Ry
        Total length        121.6039 bohr
 
                                   
   ## Saw potential for dipc (v_saw.cube) has been written.## 

     total cpu time spent up to now is     4273.7 secs

     total energy              =   -5684.71659598 Ry
     Harris-Foulkes estimate   =   -5684.71677272 Ry
     estimated scf accuracy    <       0.00010746 Ry

     iteration # 20     ecut=    50.00 Ry     beta= 0.70
     CG style diagonalization
     c_bands:  1 eigenvalues not converged
     c_bands:  1 eigenvalues not converged
     c_bands:  1 eigenvalues not converged
     c_bands:  2 eigenvalues not converged
     c_bands:  1 eigenvalues not converged
     c_bands:  1 eigenvalues not converged
     c_bands:  1 eigenvalues not converged
     c_bands:  1 eigenvalues not converged
     c_bands:  1 eigenvalues not converged
     c_bands:  1 eigenvalues not converged
     c_bands:  1 eigenvalues not converged
     c_bands:  1 eigenvalues not converged
     c_bands:  1 eigenvalues not converged
     c_bands:  1 eigenvalues not converged
     c_bands:  2 eigenvalues not converged
     c_bands:  2 eigenvalues not converged
     c_bands:  2 eigenvalues not converged
     c_bands:  1 eigenvalues not converged
     c_bands:  1 eigenvalues not converged
     c_bands:  1 eigenvalues not converged
     c_bands:  1 eigenvalues not converged
     c_bands:  3 eigenvalues not converged
     ethr =  6.10E-08,  avg # of iterations =  3.5

     negative rho (up, down):  3.499E-03 0.000E+00
                                   
   ## Hartree pot for val. elec. (v_hartree.cube) has been written. ## 
         
  DFT-CES: QM_ion*rho_ces =        0.000000 Ry
  DFT-CES: QM_ion*rho_ces_ion =        6.837188 Ry
  DFT-CES: QM_rho*rho_ces =        0.000000 Ry
  DFT-CES: QM_rho*rho_ces_ion =       -6.843331 Ry
  DFT-CES: QM_rho*rho_ces_rep =        0.000000 Ry
  DFT-CES: MD pot added. E_ces=       -0.006143 Ry
 
     Adding external electric field

     Computed dipole along edir(3) : 
     System dipole           0.5693 Ry au,          1.4471 Debye
        CES dipole          -0.4012 Ry au,         -1.0199 Debye
        Dipole                0.1681 Ry au,          0.4272 Debye
        Dipole field          0.0002 Ry au, 
 
        Potential amp.       -0.0394 Ry
        Total length        121.6039 bohr
 
                                   
   ## Saw potential for dipc (v_saw.cube) has been written.## 

     total cpu time spent up to now is     4496.8 secs

     total energy              =   -5684.71669894 Ry
     Harris-Foulkes estimate   =   -5684.71673328 Ry
     estimated scf accuracy    <       0.00002370 Ry

     iteration # 21     ecut=    50.00 Ry     beta= 0.70
     CG style diagonalization
     c_bands:  1 eigenvalues not converged
     c_bands:  2 eigenvalues not converged
     c_bands:  1 eigenvalues not converged
     c_bands:  1 eigenvalues not converged
     c_bands:  1 eigenvalues not converged
     c_bands:  1 eigenvalues not converged
     c_bands:  1 eigenvalues not converged
     c_bands:  1 eigenvalues not converged
     c_bands:  1 eigenvalues not converged
     c_bands:  1 eigenvalues not converged
     c_bands:  1 eigenvalues not converged
     c_bands:  1 eigenvalues not converged
     c_bands:  1 eigenvalues not converged
     c_bands:  1 eigenvalues not converged
     c_bands:  2 eigenvalues not converged
     c_bands:  1 eigenvalues not converged
     c_bands:  1 eigenvalues not converged
     c_bands:  1 eigenvalues not converged
     c_bands:  1 eigenvalues not converged
     c_bands:  2 eigenvalues not converged
     ethr =  1.35E-08,  avg # of iterations =  4.6

     negative rho (up, down):  2.767E-03 0.000E+00
                                   
   ## Hartree pot for val. elec. (v_hartree.cube) has been written. ## 
         
  DFT-CES: QM_ion*rho_ces =        0.000000 Ry
  DFT-CES: QM_ion*rho_ces_ion =        6.837188 Ry
  DFT-CES: QM_rho*rho_ces =        0.000000 Ry
  DFT-CES: QM_rho*rho_ces_ion =       -6.843380 Ry
  DFT-CES: QM_rho*rho_ces_rep =        0.000000 Ry
  DFT-CES: MD pot added. E_ces=       -0.006192 Ry
 
     Adding external electric field

     Computed dipole along edir(3) : 
     System dipole           0.5745 Ry au,          1.4603 Debye
        CES dipole          -0.4012 Ry au,         -1.0199 Debye
        Dipole                0.1733 Ry au,          0.4405 Debye
        Dipole field          0.0002 Ry au, 
 
        Potential amp.       -0.0406 Ry
        Total length        121.6039 bohr
 
                                   
   ## Saw potential for dipc (v_saw.cube) has been written.## 

     total cpu time spent up to now is     4795.6 secs

     total energy              =   -5684.71674195 Ry
     Harris-Foulkes estimate   =   -5684.71675842 Ry
     estimated scf accuracy    <       0.00001547 Ry

     iteration # 22     ecut=    50.00 Ry     beta= 0.70
     CG style diagonalization
     c_bands:  1 eigenvalues not converged
     c_bands:  1 eigenvalues not converged
     c_bands:  2 eigenvalues not converged
     c_bands:  1 eigenvalues not converged
     c_bands:  2 eigenvalues not converged
     c_bands:  2 eigenvalues not converged
     c_bands:  2 eigenvalues not converged
     c_bands:  2 eigenvalues not converged
     c_bands:  1 eigenvalues not converged
     c_bands:  2 eigenvalues not converged
     c_bands:  1 eigenvalues not converged
     c_bands:  2 eigenvalues not converged
     c_bands:  1 eigenvalues not converged
     c_bands:  2 eigenvalues not converged
     ethr =  8.79E-09,  avg # of iterations =  3.4

     negative rho (up, down):  2.118E-03 0.000E+00
                                   
   ## Hartree pot for val. elec. (v_hartree.cube) has been written. ## 
         
  DFT-CES: QM_ion*rho_ces =        0.000000 Ry
  DFT-CES: QM_ion*rho_ces_ion =        6.837188 Ry
  DFT-CES: QM_rho*rho_ces =        0.000000 Ry
  DFT-CES: QM_rho*rho_ces_ion =       -6.843343 Ry
  DFT-CES: QM_rho*rho_ces_rep =        0.000000 Ry
  DFT-CES: MD pot added. E_ces=       -0.006154 Ry
 
     Adding external electric field

     Computed dipole along edir(3) : 
     System dipole           0.5784 Ry au,          1.4701 Debye
        CES dipole          -0.4012 Ry au,         -1.0199 Debye
        Dipole                0.1771 Ry au,          0.4502 Debye
        Dipole field          0.0002 Ry au, 
 
        Potential amp.       -0.0415 Ry
        Total length        121.6039 bohr
 
                                   
   ## Saw potential for dipc (v_saw.cube) has been written.## 

     total cpu time spent up to now is     5004.2 secs

     total energy              =   -5684.71668134 Ry
     Harris-Foulkes estimate   =   -5684.71670568 Ry
     estimated scf accuracy    <       0.00000998 Ry

     iteration # 23     ecut=    50.00 Ry     beta= 0.70
     CG style diagonalization
     c_bands:  1 eigenvalues not converged
     c_bands:  1 eigenvalues not converged
     c_bands:  1 eigenvalues not converged
     c_bands:  1 eigenvalues not converged
     c_bands:  1 eigenvalues not converged
     c_bands:  1 eigenvalues not converged
     c_bands:  2 eigenvalues not converged
     c_bands:  1 eigenvalues not converged
     c_bands:  1 eigenvalues not converged
     c_bands:  1 eigenvalues not converged
     c_bands:  1 eigenvalues not converged
     c_bands:  1 eigenvalues not converged
     c_bands:  1 eigenvalues not converged
     c_bands:  1 eigenvalues not converged
     c_bands:  1 eigenvalues not converged
     c_bands:  1 eigenvalues not converged
     c_bands:  1 eigenvalues not converged
     ethr =  5.67E-09,  avg # of iterations =  3.4

     negative rho (up, down):  1.938E-03 0.000E+00
                                   
   ## Hartree pot for val. elec. (v_hartree.cube) has been written. ## 
         
  DFT-CES: QM_ion*rho_ces =        0.000000 Ry
  DFT-CES: QM_ion*rho_ces_ion =        6.837188 Ry
  DFT-CES: QM_rho*rho_ces =        0.000000 Ry
  DFT-CES: QM_rho*rho_ces_ion =       -6.843333 Ry
  DFT-CES: QM_rho*rho_ces_rep =        0.000000 Ry
  DFT-CES: MD pot added. E_ces=       -0.006145 Ry
 
     Adding external electric field

     Computed dipole along edir(3) : 
     System dipole           0.5847 Ry au,          1.4861 Debye
        CES dipole          -0.4012 Ry au,         -1.0199 Debye
        Dipole                0.1834 Ry au,          0.4662 Debye
        Dipole field          0.0002 Ry au, 
 
        Potential amp.       -0.0430 Ry
        Total length        121.6039 bohr
 
                                   
   ## Saw potential for dipc (v_saw.cube) has been written.## 

     total cpu time spent up to now is     5213.2 secs

     total energy              =   -5684.71666408 Ry
     Harris-Foulkes estimate   =   -5684.71667002 Ry
     estimated scf accuracy    <       0.00000843 Ry

     iteration # 24     ecut=    50.00 Ry     beta= 0.70
     CG style diagonalization
     c_bands:  1 eigenvalues not converged
     c_bands:  1 eigenvalues not converged
     c_bands:  1 eigenvalues not converged
     c_bands:  1 eigenvalues not converged
     c_bands:  1 eigenvalues not converged
     c_bands:  1 eigenvalues not converged
     c_bands:  2 eigenvalues not converged
     c_bands:  1 eigenvalues not converged
     c_bands:  1 eigenvalues not converged
     c_bands:  1 eigenvalues not converged
     c_bands:  1 eigenvalues not converged
     c_bands:  1 eigenvalues not converged
     c_bands:  1 eigenvalues not converged
     ethr =  4.79E-09,  avg # of iterations =  3.2

     negative rho (up, down):  1.732E-03 0.000E+00
                                   
   ## Hartree pot for val. elec. (v_hartree.cube) has been written. ## 
         
  DFT-CES: QM_ion*rho_ces =        0.000000 Ry
  DFT-CES: QM_ion*rho_ces_ion =        6.837188 Ry
  DFT-CES: QM_rho*rho_ces =        0.000000 Ry
  DFT-CES: QM_rho*rho_ces_ion =       -6.843434 Ry
  DFT-CES: QM_rho*rho_ces_rep =        0.000000 Ry
  DFT-CES: MD pot added. E_ces=       -0.006246 Ry
 
     Adding external electric field

     Computed dipole along edir(3) : 
     System dipole           0.5790 Ry au,          1.4716 Debye
        CES dipole          -0.4012 Ry au,         -1.0199 Debye
        Dipole                0.1777 Ry au,          0.4517 Debye
        Dipole field          0.0002 Ry au, 
 
        Potential amp.       -0.0416 Ry
        Total length        121.6039 bohr
 
                                   
   ## Saw potential for dipc (v_saw.cube) has been written.## 

     total cpu time spent up to now is     5408.2 secs

     total energy              =   -5684.71677958 Ry
     Harris-Foulkes estimate   =   -5684.71676836 Ry
     estimated scf accuracy    <       0.00000971 Ry

     iteration # 25     ecut=    50.00 Ry     beta= 0.70
     CG style diagonalization
     c_bands:  1 eigenvalues not converged
     c_bands:  1 eigenvalues not converged
     c_bands:  1 eigenvalues not converged
     c_bands:  2 eigenvalues not converged
     c_bands:  1 eigenvalues not converged
     c_bands:  1 eigenvalues not converged
     c_bands:  1 eigenvalues not converged
     c_bands:  1 eigenvalues not converged
     c_bands:  1 eigenvalues not converged
     ethr =  4.79E-09,  avg # of iterations =  3.1

     negative rho (up, down):  1.558E-03 0.000E+00
                                   
   ## Hartree pot for val. elec. (v_hartree.cube) has been written. ## 
         
  DFT-CES: QM_ion*rho_ces =        0.000000 Ry
  DFT-CES: QM_ion*rho_ces_ion =        6.837188 Ry
  DFT-CES: QM_rho*rho_ces =        0.000000 Ry
  DFT-CES: QM_rho*rho_ces_ion =       -6.843387 Ry
  DFT-CES: QM_rho*rho_ces_rep =        0.000000 Ry
  DFT-CES: MD pot added. E_ces=       -0.006199 Ry
 
     Adding external electric field

     Computed dipole along edir(3) : 
     System dipole           0.5802 Ry au,          1.4748 Debye
        CES dipole          -0.4012 Ry au,         -1.0199 Debye
        Dipole                0.1790 Ry au,          0.4549 Debye
        Dipole field          0.0002 Ry au, 
 
        Potential amp.       -0.0419 Ry
        Total length        121.6039 bohr
 
                                   
   ## Saw potential for dipc (v_saw.cube) has been written.## 

     total cpu time spent up to now is     5593.9 secs

     total energy              =   -5684.71674112 Ry
     Harris-Foulkes estimate   =   -5684.71673288 Ry
     estimated scf accuracy    <       0.00000364 Ry

     iteration # 26     ecut=    50.00 Ry     beta= 0.70
     CG style diagonalization
     c_bands:  1 eigenvalues not converged
     ethr =  2.07E-09,  avg # of iterations =  3.1

     negative rho (up, down):  1.183E-03 0.000E+00
                                   
   ## Hartree pot for val. elec. (v_hartree.cube) has been written. ## 
         
  DFT-CES: QM_ion*rho_ces =        0.000000 Ry
  DFT-CES: QM_ion*rho_ces_ion =        6.837188 Ry
  DFT-CES: QM_rho*rho_ces =        0.000000 Ry
  DFT-CES: QM_rho*rho_ces_ion =       -6.843398 Ry
  DFT-CES: QM_rho*rho_ces_rep =        0.000000 Ry
  DFT-CES: MD pot added. E_ces=       -0.006209 Ry
 
     Adding external electric field

     Computed dipole along edir(3) : 
     System dipole           0.5727 Ry au,          1.4558 Debye
        CES dipole          -0.4012 Ry au,         -1.0199 Debye
        Dipole                0.1715 Ry au,          0.4359 Debye
        Dipole field          0.0002 Ry au, 
 
        Potential amp.       -0.0402 Ry
        Total length        121.6039 bohr
 
                                   
   ## Saw potential for dipc (v_saw.cube) has been written.## 

     total cpu time spent up to now is     5777.5 secs

     total energy              =   -5684.71678510 Ry
     Harris-Foulkes estimate   =   -5684.71675418 Ry
     estimated scf accuracy    <       0.00000364 Ry

     iteration # 27     ecut=    50.00 Ry     beta= 0.70
     CG style diagonalization
     ethr =  2.07E-09,  avg # of iterations =  3.0

     negative rho (up, down):  1.142E-03 0.000E+00
                                   
   ## Hartree pot for val. elec. (v_hartree.cube) has been written. ## 
         
  DFT-CES: QM_ion*rho_ces =        0.000000 Ry
  DFT-CES: QM_ion*rho_ces_ion =        6.837188 Ry
  DFT-CES: QM_rho*rho_ces =        0.000000 Ry
  DFT-CES: QM_rho*rho_ces_ion =       -6.843383 Ry
  DFT-CES: QM_rho*rho_ces_rep =        0.000000 Ry
  DFT-CES: MD pot added. E_ces=       -0.006195 Ry
 
     Adding external electric field

     Computed dipole along edir(3) : 
     System dipole           0.5723 Ry au,          1.4545 Debye
        CES dipole          -0.4012 Ry au,         -1.0199 Debye
        Dipole                0.1710 Ry au,          0.4347 Debye
        Dipole field          0.0002 Ry au, 
 
        Potential amp.       -0.0401 Ry
        Total length        121.6039 bohr
 
                                   
   ## Saw potential for dipc (v_saw.cube) has been written.## 

     total cpu time spent up to now is     5957.8 secs

     total energy              =   -5684.71677194 Ry
     Harris-Foulkes estimate   =   -5684.71677126 Ry
     estimated scf accuracy    <       0.00000242 Ry

     iteration # 28     ecut=    50.00 Ry     beta= 0.70
     CG style diagonalization
     ethr =  1.37E-09,  avg # of iterations =  3.0

     negative rho (up, down):  1.202E-03 0.000E+00
                                   
   ## Hartree pot for val. elec. (v_hartree.cube) has been written. ## 
         
  DFT-CES: QM_ion*rho_ces =        0.000000 Ry
  DFT-CES: QM_ion*rho_ces_ion =        6.837188 Ry
  DFT-CES: QM_rho*rho_ces =        0.000000 Ry
  DFT-CES: QM_rho*rho_ces_ion =       -6.843386 Ry
  DFT-CES: QM_rho*rho_ces_rep =        0.000000 Ry
  DFT-CES: MD pot added. E_ces=       -0.006198 Ry
 
     Adding external electric field

     Computed dipole along edir(3) : 
     System dipole           0.5736 Ry au,          1.4580 Debye
        CES dipole          -0.4012 Ry au,         -1.0199 Debye
        Dipole                0.1724 Ry au,          0.4381 Debye
        Dipole field          0.0002 Ry au, 
 
        Potential amp.       -0.0404 Ry
        Total length        121.6039 bohr
 
                                   
   ## Saw potential for dipc (v_saw.cube) has been written.## 

     total cpu time spent up to now is     6135.8 secs

     total energy              =   -5684.71677061 Ry
     Harris-Foulkes estimate   =   -5684.71677406 Ry
     estimated scf accuracy    <       0.00000234 Ry

     iteration # 29     ecut=    50.00 Ry     beta= 0.70
     CG style diagonalization
     ethr =  1.33E-09,  avg # of iterations =  3.0

     negative rho (up, down):  1.213E-03 0.000E+00
                                   
   ## Hartree pot for val. elec. (v_hartree.cube) has been written. ## 
         
  DFT-CES: QM_ion*rho_ces =        0.000000 Ry
  DFT-CES: QM_ion*rho_ces_ion =        6.837188 Ry
  DFT-CES: QM_rho*rho_ces =        0.000000 Ry
  DFT-CES: QM_rho*rho_ces_ion =       -6.843389 Ry
  DFT-CES: QM_rho*rho_ces_rep =        0.000000 Ry
  DFT-CES: MD pot added. E_ces=       -0.006201 Ry
 
     Adding external electric field

     Computed dipole along edir(3) : 
     System dipole           0.5730 Ry au,          1.4564 Debye
        CES dipole          -0.4012 Ry au,         -1.0199 Debye
        Dipole                0.1718 Ry au,          0.4366 Debye
        Dipole field          0.0002 Ry au, 
 
        Potential amp.       -0.0402 Ry
        Total length        121.6039 bohr
 
                                   
   ## Saw potential for dipc (v_saw.cube) has been written.## 

     total cpu time spent up to now is     6314.4 secs

     total energy              =   -5684.71677604 Ry
     Harris-Foulkes estimate   =   -5684.71677387 Ry
     estimated scf accuracy    <       0.00000248 Ry

     iteration # 30     ecut=    50.00 Ry     beta= 0.70
     CG style diagonalization
     ethr =  1.33E-09,  avg # of iterations =  3.0

     negative rho (up, down):  1.099E-03 0.000E+00
                                   
   ## Hartree pot for val. elec. (v_hartree.cube) has been written. ## 
         
  DFT-CES: QM_ion*rho_ces =        0.000000 Ry
  DFT-CES: QM_ion*rho_ces_ion =        6.837188 Ry
  DFT-CES: QM_rho*rho_ces =        0.000000 Ry
  DFT-CES: QM_rho*rho_ces_ion =       -6.843394 Ry
  DFT-CES: QM_rho*rho_ces_rep =        0.000000 Ry
  DFT-CES: MD pot added. E_ces=       -0.006205 Ry
 
     Adding external electric field

     Computed dipole along edir(3) : 
     System dipole           0.5741 Ry au,          1.4593 Debye
        CES dipole          -0.4012 Ry au,         -1.0199 Debye
        Dipole                0.1729 Ry au,          0.4395 Debye
        Dipole field          0.0002 Ry au, 
 
        Potential amp.       -0.0405 Ry
        Total length        121.6039 bohr
 
                                   
   ## Saw potential for dipc (v_saw.cube) has been written.## 

     total cpu time spent up to now is     6491.6 secs

     total energy              =   -5684.71677894 Ry
     Harris-Foulkes estimate   =   -5684.71678036 Ry
     estimated scf accuracy    <       0.00000284 Ry

     iteration # 31     ecut=    50.00 Ry     beta= 0.70
     CG style diagonalization
     ethr =  1.33E-09,  avg # of iterations =  3.0

     negative rho (up, down):  9.616E-04 0.000E+00
                                   
   ## Hartree pot for val. elec. (v_hartree.cube) has been written. ## 
         
  DFT-CES: QM_ion*rho_ces =        0.000000 Ry
  DFT-CES: QM_ion*rho_ces_ion =        6.837188 Ry
  DFT-CES: QM_rho*rho_ces =        0.000000 Ry
  DFT-CES: QM_rho*rho_ces_ion =       -6.843380 Ry
  DFT-CES: QM_rho*rho_ces_rep =        0.000000 Ry
  DFT-CES: MD pot added. E_ces=       -0.006192 Ry
 
     Adding external electric field

     Computed dipole along edir(3) : 
     System dipole           0.5790 Ry au,          1.4716 Debye
        CES dipole          -0.4012 Ry au,         -1.0199 Debye
        Dipole                0.1777 Ry au,          0.4517 Debye
        Dipole field          0.0002 Ry au, 
 
        Potential amp.       -0.0416 Ry
        Total length        121.6039 bohr
 
                                   
   ## Saw potential for dipc (v_saw.cube) has been written.## 

     total cpu time spent up to now is     6669.6 secs

     total energy              =   -5684.71676883 Ry
     Harris-Foulkes estimate   =   -5684.71676369 Ry
     estimated scf accuracy    <       0.00000179 Ry

     iteration # 32     ecut=    50.00 Ry     beta= 0.70
     CG style diagonalization
     ethr =  1.01E-09,  avg # of iterations =  3.0

     negative rho (up, down):  1.018E-03 0.000E+00
                                   
   ## Hartree pot for val. elec. (v_hartree.cube) has been written. ## 
         
  DFT-CES: QM_ion*rho_ces =        0.000000 Ry
  DFT-CES: QM_ion*rho_ces_ion =        6.837188 Ry
  DFT-CES: QM_rho*rho_ces =        0.000000 Ry
  DFT-CES: QM_rho*rho_ces_ion =       -6.843357 Ry
  DFT-CES: QM_rho*rho_ces_rep =        0.000000 Ry
  DFT-CES: MD pot added. E_ces=       -0.006168 Ry
 
     Adding external electric field

     Computed dipole along edir(3) : 
     System dipole           0.5850 Ry au,          1.4870 Debye
        CES dipole          -0.4012 Ry au,         -1.0199 Debye
        Dipole                0.1838 Ry au,          0.4672 Debye
        Dipole field          0.0002 Ry au, 
 
        Potential amp.       -0.0431 Ry
        Total length        121.6039 bohr
 
                                   
   ## Saw potential for dipc (v_saw.cube) has been written.## 

     total cpu time spent up to now is     6847.1 secs

     total energy              =   -5684.71674339 Ry
     Harris-Foulkes estimate   =   -5684.71674349 Ry
     estimated scf accuracy    <       0.00000102 Ry

     iteration # 33     ecut=    50.00 Ry     beta= 0.70
     CG style diagonalization
     ethr =  5.79E-10,  avg # of iterations =  3.0

     negative rho (up, down):  1.133E-03 0.000E+00
                                   
   ## Hartree pot for val. elec. (v_hartree.cube) has been written. ## 
         
  DFT-CES: QM_ion*rho_ces =        0.000000 Ry
  DFT-CES: QM_ion*rho_ces_ion =        6.837188 Ry
  DFT-CES: QM_rho*rho_ces =        0.000000 Ry
  DFT-CES: QM_rho*rho_ces_ion =       -6.843356 Ry
  DFT-CES: QM_rho*rho_ces_rep =        0.000000 Ry
  DFT-CES: MD pot added. E_ces=       -0.006168 Ry
 
     Adding external electric field

     Computed dipole along edir(3) : 
     System dipole           0.5965 Ry au,          1.5162 Debye
        CES dipole          -0.4012 Ry au,         -1.0199 Debye
        Dipole                0.1953 Ry au,          0.4964 Debye
        Dipole field          0.0002 Ry au, 
 
        Potential amp.       -0.0457 Ry
        Total length        121.6039 bohr
 
                                   
   ## Saw potential for dipc (v_saw.cube) has been written.## 

     total cpu time spent up to now is     7026.5 secs

     End of self-consistent calculation

          k = 0.0000 0.0000 0.0000 ( 77985 PWs)   bands (ev):

    -8.9882  -8.1232  -7.8525  -7.8340  -7.7815  -7.7055  -7.6837  -7.4733
    -7.3744  -7.3744  -7.3442  -7.3400  -7.3400  -7.1672  -7.1672  -7.0762
    -6.9560  -6.9560  -6.8302  -6.8301  -6.8001  -6.8001  -6.7272  -6.7272
    -6.5636  -6.5376  -6.4946  -6.4652  -6.4652  -6.4466  -6.4459  -6.4019
    -6.4019  -6.3207  -6.3185  -6.3185  -6.3139  -6.1864  -6.1864  -6.1378
    -6.1377  -6.1163  -6.1163  -5.9794  -5.9793  -5.9322  -5.9322  -5.8621
    -5.8621  -5.8036  -5.7331  -5.7331  -5.7318  -5.5177  -5.5164  -5.4593
    -5.4579  -5.4579  -5.3888  -5.3888  -5.3724  -5.3714  -5.2730  -5.2730
    -5.2300  -5.1039  -5.0546  -5.0536  -5.0342  -4.9052  -4.9052  -4.8891
    -4.8407  -4.8391  -4.7867  -4.7759  -4.7620  -4.7619  -4.6962  -4.6630
    -4.6630  -4.5429  -4.5312  -2.7763  -2.2046  -2.2045  -1.6957  -1.5331
    -1.4120  -1.4119  -0.9664  -0.4643  -0.2217   0.0125   0.0127   1.9387
     1.9601   1.9799   1.9803   2.5523   3.3040   4.0294   4.0331   4.1479
     4.1483   4.4842

          k = 0.0000 0.1083 0.0000 ( 78007 PWs)   bands (ev):

    -8.9108  -8.0525  -7.8022  -7.7806  -7.7313  -7.6792  -7.6247  -7.4206
    -7.3533  -7.3517  -7.3359  -7.3012  -7.2865  -7.1844  -7.1011  -7.0616
    -6.9618  -6.9241  -6.9113  -6.8598  -6.8300  -6.7511  -6.7297  -6.6551
    -6.6016  -6.5135  -6.4944  -6.4873  -6.4699  -6.4654  -6.4068  -6.4064
    -6.3937  -6.3713  -6.3052  -6.2886  -6.2693  -6.2088  -6.1577  -6.1484
    -6.1377  -6.1009  -6.0887  -6.0594  -6.0116  -5.9755  -5.9227  -5.9162
    -5.8579  -5.8316  -5.7885  -5.7757  -5.6818  -5.5817  -5.5400  -5.4865
    -5.4801  -5.4734  -5.4732  -5.4172  -5.3734  -5.3583  -5.2794  -5.2583
    -5.1942  -5.1233  -5.0899  -5.0590  -5.0585  -4.9344  -4.9210  -4.9015
    -4.8682  -4.8400  -4.8270  -4.8071  -4.7943  -4.7391  -4.7225  -4.7110
    -4.6985  -4.6158  -4.6027  -3.3277  -2.6650  -2.6332  -1.5004  -1.3697
    -1.1692  -0.9114  -0.8312  -0.3337  -0.0525  -0.0486   0.9113   1.3315
     1.9982   2.0068   2.6007   2.8647   3.0516   3.2932   3.3760   3.3921
     4.0379   4.5544

          k = 0.0000 0.2165 0.0000 ( 77943 PWs)   bands (ev):

    -8.6861  -7.8552  -7.6774  -7.6289  -7.5929  -7.5837  -7.4625  -7.3547
    -7.2889  -7.2810  -7.2757  -7.2371  -7.1355  -7.1246  -7.1105  -7.0167
    -6.9777  -6.9366  -6.9351  -6.8838  -6.8356  -6.7110  -6.7023  -6.6993
    -6.6253  -6.6080  -6.5428  -6.5026  -6.4742  -6.4481  -6.3773  -6.3459
    -6.3051  -6.2967  -6.2857  -6.2760  -6.2691  -6.2396  -6.2174  -6.1889
    -6.1379  -6.0948  -6.0563  -6.0552  -6.0176  -5.9906  -5.9885  -5.9775
    -5.9464  -5.9073  -5.9023  -5.8208  -5.7728  -5.6548  -5.5866  -5.5464
    -5.5295  -5.5204  -5.4799  -5.4521  -5.4245  -5.3729  -5.3423  -5.2575
    -5.2351  -5.1693  -5.1147  -5.1126  -5.0950  -5.0735  -5.0130  -4.9554
    -4.9517  -4.9471  -4.9070  -4.9009  -4.8473  -4.8422  -4.8247  -4.8241
    -4.7806  -4.6806  -4.3825  -4.2346  -3.6732  -2.3650  -2.1626  -0.9987
    -0.9252  -0.4651  -0.0047   0.0314   0.4012   0.5155   1.4155   2.0405
     2.1251   2.1315   2.2081   2.3079   2.6125   2.7487   3.0914   3.4246
     3.5925   4.7563

          k = 0.0000 0.3248 0.0000 ( 77783 PWs)   bands (ev):

    -8.3398  -7.5816  -7.5501  -7.5488  -7.4092  -7.4060  -7.3764  -7.2615
    -7.2466  -7.2204  -7.1932  -7.1678  -7.0940  -7.0920  -7.0503  -6.9397
    -6.9272  -6.9265  -6.8954  -6.8921  -6.8261  -6.7994  -6.7623  -6.7057
    -6.7016  -6.6438  -6.5604  -6.5480  -6.4922  -6.3814  -6.3777  -6.3653
    -6.3340  -6.3139  -6.2933  -6.2901  -6.2575  -6.2281  -6.2074  -6.1952
    -6.1014  -6.0896  -6.0865  -6.0741  -6.0634  -6.0502  -6.0468  -5.9711
    -5.9410  -5.9395  -5.8277  -5.8198  -5.7430  -5.6715  -5.6570  -5.6442
    -5.5816  -5.5538  -5.5255  -5.5174  -5.4750  -5.4692  -5.4680  -5.4071
    -5.3510  -5.3058  -5.2164  -5.1827  -5.1688  -5.0989  -5.0979  -5.0743
    -5.0594  -5.0155  -4.9466  -4.9099  -4.9036  -4.8969  -4.8810  -4.8801
    -4.8633  -4.8589  -4.7361  -4.4644  -3.9988  -2.9449  -1.9333  -0.7666
    -0.3283  -0.2837   0.0553   0.5802   1.0224   1.1999   1.3528   1.3635
     2.0401   2.1202   2.3220   2.3858   2.5502   2.6786   2.9805   3.0067
     3.7476   3.8981

          k = 0.0000-0.4330 0.0000 ( 77704 PWs)   bands (ev):

    -7.9267  -7.9267  -7.4135  -7.4135  -7.3089  -7.3089  -7.2446  -7.2446
    -7.2227  -7.2227  -7.1307  -7.1307  -7.0776  -7.0776  -6.9941  -6.9941
    -6.9725  -6.9725  -6.8384  -6.8384  -6.7911  -6.7911  -6.7768  -6.7768
    -6.6741  -6.6740  -6.5839  -6.5839  -6.4471  -6.4471  -6.3683  -6.3683
    -6.3407  -6.3407  -6.3301  -6.3301  -6.2693  -6.2693  -6.1920  -6.1920
    -6.1844  -6.1843  -6.0857  -6.0857  -6.0751  -6.0751  -5.8875  -5.8875
    -5.7733  -5.7732  -5.7580  -5.7580  -5.7280  -5.7280  -5.6970  -5.6970
    -5.6900  -5.6899  -5.6604  -5.6604  -5.4736  -5.4736  -5.4263  -5.4263
    -5.3411  -5.3411  -5.2998  -5.2998  -5.2589  -5.2589  -5.1310  -5.1310
    -5.0816  -5.0816  -4.9449  -4.9449  -4.9434  -4.9433  -4.8915  -4.8915
    -4.8498  -4.8498  -4.8035  -4.8035  -3.5374  -3.5373  -1.4013  -1.4012
     0.4182   0.4182   0.4916   0.4918   0.6703   0.6703   1.2787   1.2787
     1.6869   1.6869   2.8464   2.8464   3.0900   3.0924   3.3707   3.3708
     3.7049   3.7049

          k = 0.1250 0.0000 0.0000 ( 77999 PWs)   bands (ev):

    -8.8852  -8.0294  -7.8167  -7.7630  -7.7586  -7.6664  -7.6055  -7.4814
    -7.4814  -7.4446  -7.3874  -7.3874  -7.3220  -7.3220  -7.3124  -7.0699
    -7.0699  -7.0461  -6.8995  -6.8995  -6.8699  -6.8699  -6.7264  -6.7264
    -6.5648  -6.5092  -6.4937  -6.4911  -6.4754  -6.4029  -6.4029  -6.3951
    -6.3619  -6.3046  -6.2631  -6.2525  -6.2525  -6.2156  -6.1840  -6.1840
    -6.1586  -6.1402  -6.0891  -6.0191  -6.0191  -5.7950  -5.7818  -5.7529
    -5.7529  -5.6456  -5.6456  -5.6146  -5.5504  -5.5503  -5.5445  -5.5045
    -5.5033  -5.3682  -5.3682  -5.3665  -5.3114  -5.3114  -5.2344  -5.2149
    -5.2149  -5.1431  -5.1059  -5.0834  -5.0541  -4.9098  -4.9018  -4.9018
    -4.8498  -4.8371  -4.8359  -4.7691  -4.7691  -4.7424  -4.6607  -4.6607
    -4.6585  -4.6098  -4.5918  -2.6801  -2.6295  -2.1782  -2.1782  -1.9409
    -1.3975  -1.3975  -1.3172  -0.6614   0.0039   0.0041   0.6926   1.8715
     1.8720   2.0262   2.1917   2.2234   2.7750   2.9316   2.9317   3.5991
     3.7669   3.7690

          k = 0.1250 0.1083 0.0000 ( 77975 PWs)   bands (ev):

    -8.8095  -7.9619  -7.7654  -7.7115  -7.7085  -7.6418  -7.5498  -7.4689
    -7.4427  -7.4220  -7.3923  -7.3540  -7.3224  -7.2546  -7.2421  -7.0893
    -7.0338  -7.0284  -6.9107  -6.9062  -6.8861  -6.8470  -6.7387  -6.6424
    -6.5955  -6.5586  -6.5077  -6.4886  -6.4765  -6.3913  -6.3880  -6.3562
    -6.3324  -6.3101  -6.2890  -6.2568  -6.2342  -6.2326  -6.1956  -6.1920
    -6.1723  -6.1054  -6.0589  -6.0522  -5.9936  -5.8581  -5.8229  -5.7956
    -5.7504  -5.7075  -5.6694  -5.6571  -5.6100  -5.5777  -5.5637  -5.5130
    -5.5125  -5.4389  -5.3901  -5.3833  -5.3340  -5.2933  -5.2645  -5.2004
    -5.1899  -5.1353  -5.1316  -5.1195  -5.0612  -4.9711  -4.9255  -4.9096
    -4.8964  -4.8537  -4.8394  -4.8337  -4.8034  -4.7937  -4.7175  -4.7072
    -4.6959  -4.6248  -4.5437  -3.3205  -2.6186  -2.5264  -2.5040  -1.7725
    -1.1648  -1.1431  -0.8771  -0.4997  -0.0615   0.8218   0.9396   1.1307
     1.6837   2.0993   2.2359   2.7113   2.8231   3.2947   3.4301   3.6678
     4.1446   4.1858

          k = 0.1250 0.2165 0.0000 ( 77871 PWs)   bands (ev):

    -8.5913  -7.7795  -7.6393  -7.5722  -7.5689  -7.5514  -7.4592  -7.4121
    -7.4000  -7.3696  -7.3412  -7.2502  -7.2439  -7.1324  -7.0941  -7.0890
    -6.9960  -6.9951  -6.9726  -6.9052  -6.8585  -6.7771  -6.6833  -6.6738
    -6.6714  -6.5617  -6.5586  -6.5132  -6.4771  -6.4203  -6.3687  -6.2985
    -6.2920  -6.2690  -6.2619  -6.2605  -6.2494  -6.2437  -6.2036  -6.1848
    -6.1641  -6.0862  -6.0286  -6.0123  -5.9767  -5.9625  -5.9505  -5.8960
    -5.8193  -5.7772  -5.7730  -5.7286  -5.6898  -5.6522  -5.5928  -5.5892
    -5.5687  -5.5509  -5.4265  -5.3791  -5.3653  -5.3456  -5.3414  -5.3331
    -5.2559  -5.1794  -5.1591  -5.1502  -5.0815  -5.0739  -5.0572  -4.9933
    -4.9667  -4.9470  -4.9445  -4.8915  -4.8826  -4.8287  -4.8118  -4.8026
    -4.7644  -4.6534  -4.2757  -4.2506  -3.6667  -2.2439  -2.1200  -2.0770
    -1.3341  -0.7447  -0.0607   0.0540   0.4191   0.6707   1.1826   1.2787
     1.6873   2.3033   2.3770   2.3905   2.8461   2.9709   3.3712   3.7044
     3.8755   4.4599

          k = 0.1250 0.3248 0.0000 ( 77789 PWs)   bands (ev):

    -8.2626  -7.5955  -7.5537  -7.5196  -7.3981  -7.3783  -7.3508  -7.3491
    -7.3405  -7.2641  -7.2619  -7.2073  -7.0843  -7.0789  -7.0558  -6.9609
    -6.9175  -6.9148  -6.8977  -6.8960  -6.7941  -6.7938  -6.7643  -6.7349
    -6.6989  -6.6376  -6.6317  -6.6012  -6.4518  -6.3886  -6.3743  -6.3300
    -6.2926  -6.2665  -6.2540  -6.2223  -6.2101  -6.1756  -6.1637  -6.1382
    -6.1341  -6.0777  -6.0657  -6.0602  -6.0475  -6.0413  -5.9290  -5.9035
    -5.8603  -5.8320  -5.8153  -5.7874  -5.7131  -5.6967  -5.6904  -5.6761
    -5.6206  -5.6002  -5.5649  -5.4887  -5.4823  -5.4700  -5.4591  -5.4224
    -5.3520  -5.3444  -5.2348  -5.2300  -5.1840  -5.1469  -5.1436  -5.1136
    -5.0636  -5.0546  -4.9442  -4.9117  -4.9067  -4.8747  -4.8606  -4.8289
    -4.7958  -4.7809  -4.6779  -4.4655  -3.9181  -2.8901  -1.8301  -1.5270
    -0.7357  -0.6920  -0.2111  -0.1290   0.5652   0.6722   1.4727   1.7020
     1.9263   2.2490   2.6448   2.6563   2.7900   2.9120   3.2239   3.2457
     3.9359   4.0130

          k = 0.1250-0.4330 0.0000 ( 77766 PWs)   bands (ev):

    -7.8926  -7.8925  -7.3995  -7.3995  -7.3957  -7.3957  -7.2903  -7.2903
    -7.2477  -7.2476  -7.1371  -7.1371  -7.0532  -7.0532  -6.9736  -6.9736
    -6.9071  -6.9070  -6.8795  -6.8795  -6.7802  -6.7802  -6.7091  -6.7091
    -6.7062  -6.7062  -6.7042  -6.7042  -6.4032  -6.4031  -6.3541  -6.3541
    -6.2866  -6.2866  -6.2675  -6.2675  -6.1954  -6.1954  -6.1593  -6.1592
    -6.1289  -6.1289  -6.0302  -6.0302  -6.0157  -6.0157  -5.8618  -5.8618
    -5.8499  -5.8499  -5.7879  -5.7879  -5.7602  -5.7602  -5.6773  -5.6773
    -5.6751  -5.6751  -5.6576  -5.6576  -5.4947  -5.4947  -5.4457  -5.4457
    -5.3819  -5.3819  -5.3605  -5.3605  -5.2563  -5.2563  -5.1796  -5.1796
    -5.0993  -5.0993  -4.9329  -4.9329  -4.9320  -4.9320  -4.8301  -4.8301
    -4.8259  -4.8259  -4.7224  -4.7224  -3.4712  -3.4712  -1.3132  -1.3131
    -0.9035  -0.9035  -0.0510  -0.0510   0.6229   0.6231   1.2942   1.2942
     2.2864   2.2865   3.1236   3.1237   3.1667   3.1720   3.5873   3.5875
     3.8115   3.8115

          k = 0.1250-0.3248 0.0000 ( 77789 PWs)   bands (ev):

    -8.2626  -7.5955  -7.5537  -7.5196  -7.3981  -7.3783  -7.3508  -7.3491
    -7.3405  -7.2641  -7.2619  -7.2073  -7.0843  -7.0789  -7.0558  -6.9609
    -6.9175  -6.9148  -6.8977  -6.8960  -6.7941  -6.7938  -6.7643  -6.7349
    -6.6989  -6.6376  -6.6317  -6.6012  -6.4518  -6.3886  -6.3743  -6.3300
    -6.2926  -6.2665  -6.2540  -6.2223  -6.2101  -6.1756  -6.1637  -6.1382
    -6.1341  -6.0777  -6.0657  -6.0602  -6.0475  -6.0413  -5.9290  -5.9035
    -5.8603  -5.8320  -5.8153  -5.7874  -5.7131  -5.6967  -5.6904  -5.6761
    -5.6206  -5.6002  -5.5649  -5.4887  -5.4823  -5.4700  -5.4591  -5.4224
    -5.3520  -5.3444  -5.2348  -5.2300  -5.1840  -5.1469  -5.1436  -5.1136
    -5.0636  -5.0546  -4.9442  -4.9117  -4.9067  -4.8747  -4.8606  -4.8289
    -4.7958  -4.7809  -4.6779  -4.4655  -3.9181  -2.8901  -1.8301  -1.5270
    -0.7357  -0.6920  -0.2111  -0.1290   0.5652   0.6721   1.4726   1.7020
     1.9263   2.2491   2.6427   2.6563   2.7541   2.9120   3.2239   3.2457
     3.9360   4.0130

          k = 0.1250-0.2165 0.0000 ( 77871 PWs)   bands (ev):

    -8.5913  -7.7795  -7.6393  -7.5722  -7.5689  -7.5514  -7.4592  -7.4121
    -7.4000  -7.3696  -7.3412  -7.2502  -7.2439  -7.1324  -7.0941  -7.0890
    -6.9960  -6.9951  -6.9726  -6.9052  -6.8585  -6.7771  -6.6833  -6.6738
    -6.6714  -6.5617  -6.5586  -6.5132  -6.4771  -6.4203  -6.3687  -6.2985
    -6.2920  -6.2690  -6.2619  -6.2605  -6.2494  -6.2437  -6.2036  -6.1848
    -6.1641  -6.0862  -6.0286  -6.0123  -5.9767  -5.9625  -5.9505  -5.8960
    -5.8193  -5.7772  -5.7730  -5.7286  -5.6898  -5.6522  -5.5928  -5.5892
    -5.5687  -5.5509  -5.4265  -5.3791  -5.3653  -5.3456  -5.3414  -5.3331
    -5.2559  -5.1794  -5.1591  -5.1502  -5.0815  -5.0739  -5.0572  -4.9933
    -4.9667  -4.9470  -4.9445  -4.8915  -4.8826  -4.8287  -4.8118  -4.8026
    -4.7644  -4.6534  -4.2757  -4.2506  -3.6667  -2.2439  -2.1200  -2.0770
    -1.3341  -0.7447  -0.0607   0.0540   0.4191   0.6707   1.1826   1.2787
     1.6873   2.3009   2.3770   2.3910   2.8461   2.9708   3.3714   3.7044
     3.8755   4.4596

          k = 0.1250-0.1083 0.0000 ( 77975 PWs)   bands (ev):

    -8.8095  -7.9619  -7.7654  -7.7115  -7.7085  -7.6418  -7.5498  -7.4689
    -7.4427  -7.4220  -7.3923  -7.3540  -7.3224  -7.2546  -7.2421  -7.0893
    -7.0338  -7.0285  -6.9107  -6.9062  -6.8861  -6.8470  -6.7387  -6.6424
    -6.5955  -6.5586  -6.5077  -6.4886  -6.4765  -6.3913  -6.3880  -6.3562
    -6.3324  -6.3101  -6.2890  -6.2568  -6.2342  -6.2326  -6.1956  -6.1920
    -6.1723  -6.1054  -6.0589  -6.0522  -5.9936  -5.8581  -5.8229  -5.7956
    -5.7504  -5.7075  -5.6694  -5.6571  -5.6100  -5.5777  -5.5637  -5.5130
    -5.5125  -5.4389  -5.3901  -5.3833  -5.3340  -5.2933  -5.2645  -5.2004
    -5.1899  -5.1353  -5.1316  -5.1195  -5.0612  -4.9711  -4.9255  -4.9096
    -4.8964  -4.8537  -4.8394  -4.8337  -4.8034  -4.7937  -4.7175  -4.7072
    -4.6959  -4.6248  -4.5437  -3.3205  -2.6186  -2.5264  -2.5040  -1.7725
    -1.1648  -1.1431  -0.8771  -0.4997  -0.0615   0.8218   0.9396   1.1307
     1.6837   2.0965   2.2352   2.7113   2.8231   3.2946   3.4302   3.6678
     4.1447   4.1858

          k = 0.2500 0.0000 0.0000 ( 77982 PWs)   bands (ev):

    -8.5911  -7.7791  -7.7197  -7.6981  -7.6388  -7.6388  -7.5722  -7.5722
    -7.5688  -7.5551  -7.5522  -7.5522  -7.3998  -7.3648  -7.2509  -7.2509
    -7.2230  -7.0943  -7.0943  -6.9952  -6.9951  -6.9620  -6.6841  -6.6841
    -6.6717  -6.5617  -6.5349  -6.5137  -6.4216  -6.4216  -6.3954  -6.2980
    -6.2625  -6.2624  -6.2601  -6.2592  -6.2493  -6.2441  -6.1649  -6.0123
    -5.9766  -5.9766  -5.9632  -5.9631  -5.9504  -5.9387  -5.8966  -5.7737
    -5.6173  -5.5934  -5.5885  -5.5688  -5.5688  -5.3793  -5.3793  -5.3647
    -5.3335  -5.2718  -5.2562  -5.2561  -5.2482  -5.1601  -5.1502  -5.1502
    -5.0744  -5.0744  -5.0564  -5.0210  -5.0059  -4.9937  -4.9936  -4.9936
    -4.8821  -4.8821  -4.8509  -4.8275  -4.7960  -4.7636  -4.7636  -4.7223
    -4.6524  -4.6524  -4.2762  -3.9695  -3.2134  -2.2440  -2.0758  -2.0758
    -1.5987  -1.3334  -1.3334  -0.7447  -0.0605  -0.0603   0.5592   1.1833
     1.1834   2.2998   2.3770   2.3771   2.8885   2.9708   2.9711   3.5023
     3.8750   3.8755

          k = 0.2500 0.1083 0.0000 ( 77947 PWs)   bands (ev):

    -8.5198  -7.7190  -7.6643  -7.6479  -7.6332  -7.6095  -7.6067  -7.5393
    -7.5356  -7.5210  -7.5004  -7.4921  -7.3528  -7.3138  -7.2775  -7.1824
    -7.1646  -7.1230  -7.0165  -6.9781  -6.9696  -6.9569  -6.7583  -6.6993
    -6.6101  -6.5886  -6.5637  -6.5285  -6.4098  -6.3951  -6.3882  -6.3193
    -6.2689  -6.2521  -6.2488  -6.2455  -6.2332  -6.1952  -6.1867  -6.0349
    -6.0348  -6.0251  -6.0087  -6.0038  -5.9114  -5.8945  -5.8819  -5.8362
    -5.6179  -5.6086  -5.6027  -5.5828  -5.5456  -5.4539  -5.4218  -5.4064
    -5.3643  -5.3232  -5.2902  -5.2865  -5.2782  -5.2184  -5.1670  -5.1315
    -5.1177  -5.1104  -5.0881  -5.0735  -5.0721  -5.0284  -4.9822  -4.9724
    -4.9031  -4.8787  -4.8743  -4.8504  -4.8442  -4.8247  -4.8023  -4.7271
    -4.7011  -4.6923  -4.1933  -3.7479  -3.2535  -3.0284  -2.5290  -2.1558
    -1.4663  -1.0460  -0.8373  -0.6139  -0.2394   0.3210   0.6654   0.7697
[...]
     1.2115   2.3713   2.5737   2.6249   2.6976   3.2126   3.2511   3.7214
     3.8179   5.3166

          k = 0.2500-0.1083 0.0000 ( 77947 PWs)   bands (ev):

    -8.5198  -7.7190  -7.6643  -7.6479  -7.6332  -7.6095  -7.6067  -7.5393
    -7.5356  -7.5210  -7.5004  -7.4921  -7.3528  -7.3138  -7.2775  -7.1824
    -7.1646  -7.1230  -7.0165  -6.9781  -6.9696  -6.9569  -6.7583  -6.6993
    -6.6101  -6.5886  -6.5637  -6.5285  -6.4098  -6.3951  -6.3882  -6.3193
    -6.2689  -6.2521  -6.2488  -6.2455  -6.2332  -6.1952  -6.1867  -6.0349
    -6.0348  -6.0251  -6.0087  -6.0038  -5.9114  -5.8945  -5.8819  -5.8362
    -5.6179  -5.6086  -5.6027  -5.5828  -5.5456  -5.4539  -5.4218  -5.4064
    -5.3643  -5.3232  -5.2902  -5.2865  -5.2782  -5.2184  -5.1670  -5.1315
    -5.1177  -5.1104  -5.0881  -5.0735  -5.0721  -5.0284  -4.9822  -4.9724
    -4.9031  -4.8787  -4.8743  -4.8504  -4.8442  -4.8247  -4.8023  -4.7271
    -4.7011  -4.6923  -4.1933  -3.7479  -3.2535  -3.0284  -2.5290  -2.1558
    -1.4663  -1.0460  -0.8373  -0.6139  -0.2394   0.3210   0.6653   0.7697
     0.9912   2.2153   2.3711   2.9093   2.9475   2.9723   3.4942   3.5566
     3.7008   4.9899

          k = 0.3750 0.0000 0.0000 ( 77992 PWs)   bands (ev):

    -8.1685  -7.7939  -7.7939  -7.7257  -7.7257  -7.6693  -7.6693  -7.6630
    -7.5784  -7.5157  -7.4142  -7.4142  -7.3974  -7.3406  -7.2787  -7.2787
    -7.2471  -7.1615  -7.0960  -7.0536  -7.0536  -6.8465  -6.8286  -6.6497
    -6.6291  -6.6008  -6.6008  -6.5047  -6.5047  -6.4855  -6.3359  -6.3022
    -6.3022  -6.2861  -6.2187  -6.1958  -6.1906  -6.1555  -6.1155  -6.0339
    -6.0195  -5.8576  -5.8576  -5.8491  -5.7877  -5.7877  -5.7734  -5.7569
    -5.7430  -5.7304  -5.5506  -5.5201  -5.5133  -5.4837  -5.4837  -5.4346
    -5.3532  -5.2974  -5.2602  -5.2602  -5.2295  -5.1108  -5.0833  -5.0760
    -5.0759  -5.0699  -5.0615  -5.0096  -4.9945  -4.9360  -4.9360  -4.8752
    -4.8752  -4.8192  -4.8192  -4.8164  -4.7848  -4.7536  -4.7536  -4.6424
    -4.6424  -4.6021  -4.6021  -4.2545  -3.8144  -2.5187  -1.8632  -1.8631
    -1.7039  -1.1625  -1.1624  -0.2775  -0.2728  -0.2727   0.0586   0.2727
     0.2728   2.0311   2.0337   2.0338   2.7486   2.7489   2.7579   2.8544
     3.3232   3.3236

          k = 0.3750 0.1083 0.0000 ( 77919 PWs)   bands (ev):

    -8.1022  -7.7853  -7.7426  -7.7338  -7.6700  -7.6412  -7.6383  -7.6045
    -7.5206  -7.4527  -7.4164  -7.3825  -7.3567  -7.2983  -7.2806  -7.2151
    -7.2014  -7.1276  -7.0407  -7.0366  -7.0259  -6.8544  -6.8324  -6.6892
    -6.6449  -6.6417  -6.5678  -6.5105  -6.4836  -6.4695  -6.3363  -6.3026
    -6.2958  -6.2925  -6.2887  -6.2687  -6.2257  -6.1925  -6.1504  -6.0718
    -5.9652  -5.9148  -5.8850  -5.8338  -5.8287  -5.8007  -5.7806  -5.7397
    -5.7116  -5.6934  -5.5957  -5.5486  -5.5274  -5.5025  -5.4896  -5.4553
    -5.4413  -5.3230  -5.3064  -5.2934  -5.2466  -5.1270  -5.1266  -5.1083
    -5.1041  -5.0827  -5.0141  -5.0123  -4.9836  -4.9528  -4.9503  -4.8853
    -4.8726  -4.8468  -4.8430  -4.8049  -4.7882  -4.7786  -4.7048  -4.6739
    -4.6566  -4.6435  -4.6309  -4.0687  -3.7406  -2.9648  -2.4130  -2.2213
    -1.6257  -1.3978  -0.8279  -0.7528  -0.1923  -0.1343   0.1706   0.2282
     0.8827   2.0445   2.1234   2.3154   2.7262   2.8259   2.9145   2.9857
     3.4257   4.7177

          k = 0.3750 0.2165 0.0000 ( 77947 PWs)   bands (ev):

    -7.9264  -7.7213  -7.6985  -7.6388  -7.5723  -7.5542  -7.5524  -7.4593
    -7.3698  -7.3655  -7.3405  -7.3079  -7.2511  -7.2234  -7.2231  -7.0943
    -7.0886  -7.0770  -6.9953  -6.9611  -6.9052  -6.8587  -6.8383  -6.7913
    -6.6841  -6.5839  -6.5580  -6.5355  -6.4770  -6.4469  -6.4212  -6.3958
    -6.3405  -6.3301  -6.2908  -6.2627  -6.2607  -6.2027  -6.1912  -6.0746
    -6.0287  -5.9763  -5.9624  -5.9378  -5.8882  -5.8186  -5.7772  -5.7745
    -5.7579  -5.6977  -5.6611  -5.6519  -5.6169  -5.5686  -5.5509  -5.4741
    -5.3791  -5.3459  -5.3001  -5.2722  -5.2596  -5.2556  -5.2472  -5.1789
    -5.1501  -5.1302  -5.0735  -5.0200  -5.0058  -4.9936  -4.9925  -4.9678
    -4.9480  -4.9434  -4.8828  -4.8511  -4.8494  -4.8115  -4.7960  -4.7646
    -4.7229  -4.6533  -4.2521  -3.9684  -3.6674  -3.5377  -3.2128  -2.1203
    -2.0765  -1.5985  -1.4013  -1.3337  -0.0605   0.0536   0.4916   0.5597
     1.1834   2.3770   2.3901   2.8882   2.9709   3.0305   3.0907   3.5021
     3.8747   4.3387

          k = 0.3750 0.3248 0.0000 ( 77907 PWs)   bands (ev):

    -7.7267  -7.6519  -7.6004  -7.5063  -7.4509  -7.4328  -7.4069  -7.3473
    -7.3259  -7.3124  -7.2683  -7.2245  -7.1849  -7.1239  -7.1149  -7.0095
    -6.9879  -6.9441  -6.9248  -6.8951  -6.8765  -6.8692  -6.8398  -6.7533
    -6.7037  -6.6838  -6.6297  -6.5046  -6.4608  -6.4065  -6.4005  -6.3783
    -6.3136  -6.3119  -6.2361  -6.2161  -6.2092  -6.1943  -6.1610  -6.1474
    -6.1325  -6.0736  -6.0323  -6.0190  -5.9893  -5.9239  -5.8492  -5.7988
    -5.7774  -5.7471  -5.7010  -5.6941  -5.6478  -5.5933  -5.5923  -5.5056
    -5.4819  -5.4737  -5.3802  -5.3672  -5.3536  -5.3271  -5.3084  -5.2555
    -5.2533  -5.2287  -5.1788  -5.1736  -5.1165  -5.1046  -5.0828  -5.0212
    -5.0037  -4.9205  -4.8916  -4.8881  -4.8591  -4.7826  -4.7752  -4.7664
    -4.7239  -4.6704  -4.6617  -3.9766  -3.8133  -3.2285  -3.1792  -2.7607
    -2.2765  -2.0153  -1.6899  -1.0524  -0.5791  -0.0460   0.4355   0.9849
     1.4082   2.3103   2.8026   3.1357   3.3708   3.3890   3.6201   3.7709
     4.2970   4.3963

          k = 0.3750-0.4330 0.0000 ( 77876 PWs)   bands (ev):

    -7.6310  -7.6310  -7.4544  -7.4544  -7.3809  -7.3809  -7.3568  -7.3568
    -7.3082  -7.3082  -7.2361  -7.2361  -7.1353  -7.1353  -7.0184  -7.0184
    -6.9711  -6.9711  -6.8571  -6.8571  -6.8311  -6.8311  -6.8048  -6.8048
    -6.6458  -6.6458  -6.5246  -6.5245  -6.4604  -6.4604  -6.4012  -6.4012
    -6.3769  -6.3769  -6.2417  -6.2417  -6.1773  -6.1773  -6.1181  -6.1181
    -6.0544  -6.0544  -5.9683  -5.9683  -5.8992  -5.8992  -5.8544  -5.8544
    -5.7576  -5.7576  -5.7267  -5.7267  -5.7010  -5.7010  -5.6462  -5.6462
    -5.5831  -5.5831  -5.4790  -5.4789  -5.4408  -5.4408  -5.3528  -5.3528
    -5.2552  -5.2552  -5.2417  -5.2417  -5.1697  -5.1697  -5.0670  -5.0670
    -4.9361  -4.9361  -4.9012  -4.9012  -4.8281  -4.8281  -4.7983  -4.7982
    -4.7108  -4.7108  -4.4536  -4.4536  -3.3279  -3.3278  -2.8142  -2.8142
    -2.6308  -2.6308  -1.1633  -1.1632  -0.5968  -0.5967   0.9183   0.9184
     1.6079   1.6081   3.2967   3.2969   3.8009   3.8016   3.8528   3.8540
     4.7696   4.7702

          k = 0.3750-0.3248 0.0000 ( 77907 PWs)   bands (ev):

    -7.7267  -7.6519  -7.6004  -7.5063  -7.4509  -7.4328  -7.4069  -7.3473
    -7.3259  -7.3124  -7.2683  -7.2245  -7.1849  -7.1239  -7.1149  -7.0095
    -6.9879  -6.9441  -6.9248  -6.8951  -6.8765  -6.8692  -6.8398  -6.7533
    -6.7037  -6.6838  -6.6297  -6.5046  -6.4608  -6.4065  -6.4005  -6.3783
    -6.3136  -6.3119  -6.2361  -6.2161  -6.2092  -6.1943  -6.1610  -6.1474
    -6.1325  -6.0736  -6.0323  -6.0190  -5.9892  -5.9239  -5.8492  -5.7988
    -5.7774  -5.7471  -5.7010  -5.6941  -5.6479  -5.5933  -5.5923  -5.5056
    -5.4819  -5.4737  -5.3802  -5.3672  -5.3536  -5.3271  -5.3084  -5.2555
    -5.2533  -5.2287  -5.1788  -5.1736  -5.1165  -5.1046  -5.0828  -5.0212
    -5.0037  -4.9205  -4.8916  -4.8881  -4.8591  -4.7826  -4.7752  -4.7664
    -4.7239  -4.6704  -4.6617  -3.9766  -3.8133  -3.2285  -3.1792  -2.7607
    -2.2765  -2.0153  -1.6899  -1.0524  -0.5792  -0.0460   0.4355   0.9850
     1.4082   2.3102   2.8026   3.1357   3.3695   3.3895   3.6261   3.7711
     3.8066   4.3964

          k = 0.3750-0.2165 0.0000 ( 77947 PWs)   bands (ev):

    -7.9264  -7.7213  -7.6985  -7.6388  -7.5723  -7.5542  -7.5524  -7.4593
    -7.3698  -7.3655  -7.3405  -7.3079  -7.2511  -7.2234  -7.2231  -7.0943
    -7.0886  -7.0770  -6.9953  -6.9611  -6.9052  -6.8587  -6.8383  -6.7913
    -6.6841  -6.5839  -6.5580  -6.5355  -6.4770  -6.4469  -6.4212  -6.3958
    -6.3405  -6.3301  -6.2908  -6.2627  -6.2607  -6.2027  -6.1912  -6.0746
    -6.0287  -5.9763  -5.9624  -5.9378  -5.8882  -5.8186  -5.7772  -5.7745
    -5.7579  -5.6977  -5.6611  -5.6519  -5.6169  -5.5686  -5.5509  -5.4741
    -5.3790  -5.3459  -5.3001  -5.2722  -5.2596  -5.2556  -5.2472  -5.1789
    -5.1501  -5.1302  -5.0735  -5.0200  -5.0058  -4.9936  -4.9925  -4.9678
    -4.9480  -4.9434  -4.8828  -4.8511  -4.8494  -4.8115  -4.7960  -4.7646
    -4.7229  -4.6533  -4.2521  -3.9684  -3.6673  -3.5377  -3.2128  -2.1203
    -2.0765  -1.5985  -1.4013  -1.3337  -0.0605   0.0536   0.4916   0.5597
     1.1834   2.3771   2.3901   2.8881   2.9710   3.0328   3.0903   3.5020
     3.8749   4.3391

          k = 0.3750-0.1083 0.0000 ( 77919 PWs)   bands (ev):

    -8.1022  -7.7853  -7.7426  -7.7338  -7.6700  -7.6412  -7.6383  -7.6045
    -7.5206  -7.4527  -7.4164  -7.3825  -7.3567  -7.2983  -7.2806  -7.2151
    -7.2014  -7.1276  -7.0407  -7.0366  -7.0259  -6.8544  -6.8324  -6.6892
    -6.6449  -6.6417  -6.5678  -6.5105  -6.4836  -6.4695  -6.3363  -6.3026
    -6.2957  -6.2925  -6.2887  -6.2687  -6.2257  -6.1925  -6.1504  -6.0718
    -5.9652  -5.9148  -5.8850  -5.8338  -5.8287  -5.8007  -5.7806  -5.7397
    -5.7116  -5.6934  -5.5957  -5.5486  -5.5274  -5.5025  -5.4896  -5.4553
    -5.4414  -5.3230  -5.3064  -5.2934  -5.2466  -5.1270  -5.1266  -5.1083
    -5.1041  -5.0827  -5.0141  -5.0123  -4.9836  -4.9528  -4.9503  -4.8853
    -4.8726  -4.8468  -4.8430  -4.8049  -4.7882  -4.7786  -4.7048  -4.6739
    -4.6566  -4.6435  -4.6309  -4.0686  -3.7406  -2.9648  -2.4130  -2.2213
    -1.6257  -1.3978  -0.8278  -0.7528  -0.1923  -0.1343   0.1706   0.2282
     0.8827   2.0446   2.1230   2.3154   2.7263   2.8245   2.9115   2.9856
     3.4259   4.7177

          k =-0.5000 0.0000 0.0000 ( 77866 PWs)   bands (ev):

    -7.8537  -7.8537  -7.7896  -7.7896  -7.7818  -7.7818  -7.7049  -7.7049
    -7.4740  -7.4740  -7.4676  -7.4676  -7.3446  -7.3446  -7.2827  -7.2827
    -7.1029  -7.1029  -7.0753  -7.0753  -6.9645  -6.9645  -6.7391  -6.7391
    -6.5777  -6.5777  -6.5636  -6.5635  -6.5386  -6.5386  -6.3537  -6.3537
    -6.3222  -6.3222  -6.1991  -6.1991  -6.1415  -6.1415  -5.9694  -5.9694
    -5.8045  -5.8045  -5.8013  -5.8013  -5.7776  -5.7776  -5.7311  -5.7311
    -5.6858  -5.6857  -5.6531  -5.6531  -5.5563  -5.5563  -5.4924  -5.4924
    -5.4590  -5.4590  -5.3471  -5.3471  -5.2680  -5.2680  -5.2307  -5.2307
    -5.0640  -5.0639  -5.0333  -5.0333  -4.8900  -4.8900  -4.8434  -4.8434
    -4.8040  -4.8040  -4.7857  -4.7856  -4.7754  -4.7754  -4.6963  -4.6963
    -4.5428  -4.5428  -4.5312  -4.5312  -3.2485  -3.2485  -1.6949  -1.6948
    -1.0475  -1.0475  -0.9653  -0.9652  -0.4641  -0.4640  -0.2214  -0.2214
     1.0052   1.0053   1.9601   1.9602   2.5530   2.5534   3.3038   3.3043
     3.4022   3.4033

          k =-0.5000 0.1083 0.0000 ( 77902 PWs)   bands (ev):

    -7.8204  -7.8204  -7.7560  -7.7560  -7.7251  -7.7251  -7.6766  -7.6766
    -7.4445  -7.4445  -7.4023  -7.4023  -7.3119  -7.3119  -7.2583  -7.2583
    -7.0675  -7.0675  -7.0549  -7.0549  -6.9170  -6.9170  -6.7604  -6.7604
    -6.6383  -6.6383  -6.5745  -6.5745  -6.5063  -6.5063  -6.3872  -6.3872
    -6.3086  -6.3086  -6.2505  -6.2505  -6.1626  -6.1626  -6.0544  -6.0544
    -5.8976  -5.8976  -5.8155  -5.8155  -5.7899  -5.7899  -5.7693  -5.7692
    -5.7364  -5.7364  -5.6456  -5.6456  -5.5725  -5.5725  -5.4863  -5.4863
    -5.3802  -5.3801  -5.2513  -5.2513  -5.2403  -5.2403  -5.1453  -5.1453
    -5.0764  -5.0764  -5.0693  -5.0693  -4.9132  -4.9131  -4.8529  -4.8529
    -4.8332  -4.8332  -4.8214  -4.8214  -4.7345  -4.7345  -4.7218  -4.7218
    -4.6052  -4.6052  -4.5803  -4.5803  -3.1654  -3.1654  -2.3034  -2.3034
    -1.5784  -1.5783  -0.9706  -0.9706  -0.4656  -0.4655   0.4635   0.4636
     1.1045   1.1046   2.1007   2.1008   2.7222   2.7226   3.4076   3.4079
     3.4634   3.4701

          k =-0.5000 0.2165 0.0000 ( 77970 PWs)   bands (ev):

    -7.7227  -7.7227  -7.6820  -7.6820  -7.5959  -7.5959  -7.5624  -7.5624
    -7.3592  -7.3592  -7.2341  -7.2341  -7.2165  -7.2165  -7.2163  -7.2163
    -6.9997  -6.9997  -6.9783  -6.9783  -6.9354  -6.9354  -6.7994  -6.7994
    -6.6402  -6.6402  -6.5842  -6.5842  -6.4708  -6.4708  -6.4373  -6.4373
    -6.3199  -6.3199  -6.2711  -6.2711  -6.2460  -6.2460  -6.1979  -6.1979
    -6.0460  -6.0459  -5.9074  -5.9073  -5.8964  -5.8964  -5.8381  -5.8381
    -5.7417  -5.7417  -5.5950  -5.5950  -5.5547  -5.5546  -5.5074  -5.5074
    -5.2805  -5.2805  -5.2214  -5.2214  -5.2200  -5.2200  -5.1843  -5.1843
    -5.0701  -5.0701  -5.0283  -5.0283  -4.9797  -4.9797  -4.9072  -4.9072
    -4.8925  -4.8925  -4.8819  -4.8819  -4.8468  -4.8468  -4.7645  -4.7645
    -4.6707  -4.6707  -4.4660  -4.4660  -3.1517  -3.1517  -2.9321  -2.9321
    -2.4140  -2.4139  -0.9557  -0.9556  -0.7483  -0.7483   0.9776   0.9776
     1.3907   1.3908   2.5563   2.5564   3.2677   3.2681   3.6505   3.6524
     3.9240   3.9244

          k =-0.5000 0.3248 0.0000 ( 78010 PWs)   bands (ev):

    -7.5736  -7.5736  -7.5657  -7.5657  -7.4766  -7.4766  -7.4279  -7.4279
    -7.2588  -7.2588  -7.2305  -7.2305  -7.1354  -7.1354  -7.0668  -7.0668
    -7.0035  -7.0035  -6.9384  -6.9383  -6.9282  -6.9282  -6.8269  -6.8269
    -6.5877  -6.5877  -6.5841  -6.5841  -6.5036  -6.5036  -6.3477  -6.3476
    -6.3194  -6.3194  -6.2820  -6.2820  -6.2332  -6.2332  -6.1893  -6.1893
    -6.1492  -6.1492  -6.0395  -6.0395  -5.9514  -5.9514  -5.8958  -5.8958
    -5.7540  -5.7540  -5.6320  -5.6320  -5.5576  -5.5576  -5.5219  -5.5219
    -5.4253  -5.4253  -5.3448  -5.3448  -5.3273  -5.3273  -5.2190  -5.2190
    -5.2058  -5.2058  -5.0836  -5.0835  -5.0764  -5.0764  -5.0079  -5.0079
    -4.9146  -4.9146  -4.8672  -4.8672  -4.8666  -4.8666  -4.7464  -4.7464
    -4.5949  -4.5949  -4.1072  -4.1072  -3.8029  -3.8029  -3.1177  -3.1176
    -2.5775  -2.5775  -1.5692  -1.5692  -0.3996  -0.3996   0.5759   0.5760
     1.8338   1.8339   2.9552   2.9552   3.9543   3.9581   3.9826   3.9827
     4.0129   4.7358

          k =-0.5000-0.4330 0.0000 ( 77968 PWs)   bands (ev):

    -7.4596  -7.4596  -7.4596  -7.4596  -7.3698  -7.3698  -7.3698  -7.3698
    -7.3415  -7.3415  -7.3415  -7.3415  -7.0895  -7.0895  -7.0895  -7.0895
    -6.9054  -6.9054  -6.9054  -6.9054  -6.8582  -6.8582  -6.8582  -6.8582
    -6.5586  -6.5586  -6.5586  -6.5586  -6.4759  -6.4759  -6.4759  -6.4759
    -6.2911  -6.2911  -6.2911  -6.2911  -6.2035  -6.2035  -6.2034  -6.2034
    -6.0282  -6.0282  -6.0282  -6.0282  -5.8186  -5.8186  -5.8186  -5.8185
    -5.7764  -5.7764  -5.7764  -5.7764  -5.6510  -5.6510  -5.6510  -5.6510
    -5.5502  -5.5502  -5.5502  -5.5502  -5.3462  -5.3462  -5.3461  -5.3461
    -5.1788  -5.1788  -5.1788  -5.1788  -4.9679  -4.9679  -4.9679  -4.9679
    -4.9483  -4.9483  -4.9483  -4.9483  -4.8118  -4.8118  -4.8118  -4.8118
    -4.2520  -4.2520  -4.2520  -4.2520  -3.6672  -3.6672  -3.6672  -3.6672
    -2.1203  -2.1203  -2.1202  -2.1202   0.0536   0.0537   0.0537   0.0538
     2.3898   2.3901   2.3901   2.3904   4.3693   4.3701   4.3707   4.3715
     4.4899   4.4902

     the Fermi energy is    -1.8409 ev

!    total energy              =   -5684.71673592 Ry
     Harris-Foulkes estimate   =   -5684.71673871 Ry
     estimated scf accuracy    <       0.00000054 Ry

     total all-electron energy =   -170116.173623 Ry

     The total energy is the sum of the following terms:

     one-electron contribution =  -54971.43095160 Ry
     hartree contribution      =   27617.57316265 Ry
     xc contribution           =    -570.34338762 Ry
     ewald contribution        =   26439.49389757 Ry
     electric field correction =       0.00003673 Ry
     one-center paw contrib.   =   -4199.99795611 Ry
     smearing contrib. (-TS)   =      -0.00536962 Ry

     DFT-CES energy            =      -0.00616792 Ry

     convergence has been achieved in  33 iterations

     negative rho (up, down):  1.133E-03 0.000E+00

     Forces acting on atoms (cartesian axes, Ry/au):

     atom    1 type  1   force =    -0.00000535    0.00000105    0.00060401
     atom    2 type  1   force =    -0.00002133    0.00001550    0.00061366
     atom    3 type  1   force =     0.00003466   -0.00001485   -0.00056230
     atom    4 type  1   force =    -0.00003306    0.00001501   -0.00060049
     atom    5 type  1   force =    -0.00013042   -0.00000023    0.00063340
     atom    6 type  1   force =    -0.00011671   -0.00004959    0.00061564
     atom    7 type  1   force =     0.00014977    0.00000746   -0.00059655
     atom    8 type  1   force =     0.00013521   -0.00000757   -0.00075843
     atom    9 type  1   force =    -0.00004204    0.00003019    0.00060766
     atom   10 type  1   force =    -0.00005925    0.00002770    0.00060364
     atom   11 type  1   force =     0.00000787    0.00000723   -0.00056142
     atom   12 type  1   force =     0.00000408   -0.00002165   -0.00064051
     atom   13 type  1   force =    -0.00008969    0.00000647    0.00063932
     atom   14 type  1   force =    -0.00010808   -0.00005628    0.00065235
     atom   15 type  1   force =     0.00013071    0.00003833   -0.00064155
     atom   16 type  1   force =     0.00014364    0.00000122   -0.00060840

     Total force =     0.002520     Total SCF correction =     0.003101
     SCF correction compared to forces is large: reduce conv_thr to get better values

     Writing output data file solute.save/
 
     init_run     :     28.89s CPU     34.12s WALL (       1 calls)
     electrons    :   6875.56s CPU   6991.91s WALL (       1 calls)
     forces       :      7.57s CPU      7.80s WALL (       1 calls)

     Called by init_run:
     wfcinit      :     14.01s CPU     14.23s WALL (       1 calls)
     potinit      :     12.31s CPU     17.15s WALL (       1 calls)
     hinit0       :      1.23s CPU      1.25s WALL (       1 calls)

     Called by electrons:
     c_bands      :   6479.66s CPU   6541.15s WALL (      34 calls)
     sum_band     :    177.17s CPU    182.31s WALL (      34 calls)
     v_of_rho     :    110.94s CPU    157.49s WALL (      34 calls)
     newd         :     15.45s CPU     19.10s WALL (      34 calls)
     PAW_pot      :      4.61s CPU      4.68s WALL (      34 calls)
     mix_rho      :     90.37s CPU     91.22s WALL (      34 calls)

     Called by c_bands:
     init_us_2    :     19.22s CPU     19.37s WALL (    2380 calls)
     ccgdiagg     :   6153.37s CPU   6211.57s WALL (    1156 calls)
     wfcrot       :    320.84s CPU    323.95s WALL (    1122 calls)

     Called by sum_band:
     sum_band:bec :      0.32s CPU      0.32s WALL (    1156 calls)
     addusdens    :     25.90s CPU     29.40s WALL (      34 calls)

     Called by *cgdiagg:
     h_psi        :   2868.74s CPU   2896.40s WALL (  289305 calls)
     s_psi        :   1964.64s CPU   1984.03s WALL (  577488 calls)
     cdiaghg      :      4.12s CPU      4.14s WALL (    1122 calls)

     Called by h_psi:
     h_psi:pot    :   2859.09s CPU   2886.60s WALL (  289305 calls)
     h_psi:calbec :   1174.33s CPU   1184.53s WALL (  289305 calls)
     vloc_psi     :    675.28s CPU    684.25s WALL (  289305 calls)
     add_vuspsi   :   1006.89s CPU   1015.97s WALL (  289305 calls)
     h_1psi       :   3603.30s CPU   3637.16s WALL (  288183 calls)

     General routines
     calbec       :   2219.40s CPU   2240.28s WALL (  578780 calls)
     fft          :      8.60s CPU      8.70s WALL (     457 calls)
     ffts         :     37.84s CPU     38.23s WALL (   25670 calls)
     fftw         :    634.59s CPU    642.93s WALL (  939350 calls)
     interpolate  :      0.77s CPU      0.77s WALL (      34 calls)
 
     Parallel routines
     fft_scatt_xy :    121.88s CPU    123.56s WALL (  965477 calls)
     fft_scatt_yz :    195.49s CPU    198.32s WALL (  965477 calls)
 
     PWSCF        :     1h55m CPU       55h 1m WALL

      57h
 
   This run was terminated on:  20:35:24  14Sep2021            

=------------------------------------------------------------------------------=
   JOB DONE.
=------------------------------------------------------------------------------=
